! Touchstone file from project Ka_PF
! Exported from HFSS 15.0.0
! Variables:
!  AA = 0.34in
!  BB = 0.145in
!  M01 = 0.1632in
!  M11 = 0.2159in
!  M12 = 0.106in
!  M22 = 0.2395in
!  PL = 0.3in
!  RR = 0.035in
!  TT = 0.04in
!Data is not renormalized
# GHZ S DB
! Modal data exported
! Port[1] = 1:1
! Port[2] = 2:1
26.5             -4.99997817269767E-005 121.733799972707 -49.3881870630609 -148.290439120598 -49.3881870630639 -148.290439120597 -4.99997810249423E-005 121.685321784976 
! Gamma  !      -0               419.682083069278 -0               419.682122081271 
! Port Impedance  262.308413650299 0                262.304012454362 0                

26.509           -4.24448895820108E-005 121.405675850103 -49.2602447078195 -148.619568689215 -49.2602447078221 -148.619568689211 -4.25265861054376E-005 121.356747436986 
! Gamma  !      0                419.931675209597 0                419.931714198403 
! Port Impedance  262.241539928944 0                262.237139734567 0                

26.518           -3.49071281007759E-005 121.076876141888 -49.1318697317619 -148.949349578573 -49.131869731764 -148.949349578567 -3.50693707020112E-005 121.027492304755 
! Gamma  !      0                420.181203766761 0                420.181242732413 
! Port Impedance  262.174785328178 0                262.170386133669 0                

26.527           -2.73963421418695E-005 120.747392420389 -49.0030586383697 -149.279790717158 -49.0030586383716 -149.279790717149 -2.76379753847404E-005 120.697547869758 
! Gamma  !      0                420.43066885398  0                420.430707796511 
! Port Impedance  262.108149535037 0                262.103751338709 0                

26.536           -1.99223361795915E-005 120.4172161073   -48.8738078884116 -149.610901181195 -48.8738078884132 -149.610901181184 -2.02422002558634E-005 120.366905460869 
! Gamma  !      0                420.680070584167 0                420.680109503612 
! Port Impedance  262.041632237669 0                262.037235037837 0                

26.545           -1.2494877639128E-005 120.086338470524 -48.744113899237 -149.942690197845 -48.7441138992382 -149.942690197832 -1.28918083331639E-005 120.035556251154 
! Gamma  !      0                420.929409069942 0                420.929447966332 
! Port Impedance  261.975233125317 0                261.970836920303 0                

26.554           -5.12370044204857E-006 119.754750620924 -48.6139730440549 -150.275167148491 -48.6139730440559 -150.275167148476 -5.59652904916703E-006 119.703491254576 
! Gamma  !      0                421.178684423625 0                421.178723296995 
! Port Impedance  261.908951888327 0                261.904556676454 0                

26.563           2.1814913053872E-006 119.422443509007 -48.4833816511993 -150.608341572101 -48.4833816512   -150.608341572083 1.6339380200671E-006 119.370701322612 
! Gamma  !      0                421.427896757246 0                421.427935607628 
! Port Impedance  261.842788218133 0                261.838393997731 0                

26.572           9.41101940879149E-006 119.089407921498 -48.352336003377 -150.94222316869 -48.3523360033775 -150.942223168671 8.78991927659181E-006 119.037177140786 
! Gamma  !      0                421.67704618254  0                421.677085009966 
! Port Impedance  261.77674180726  0                261.772348576661 0                

26.581           1.65552274969739E-005 118.755634477845 -48.2208323369017 -151.276821802865 -48.220832336902 -151.276821802844 1.58617629945556E-005 118.702909225108 
! Gamma  !      0                421.926132810948 0                421.926171615453 
! Port Impedance  261.710812349313 0                261.706420106853 0                

26.59            2.36044767152455E-005 118.421113626616 -48.0888668409101 -151.612147507464 -48.08886684091  -151.612147507441 2.28398350231636E-005 118.367887918417 
! Gamma  !      0                422.175156753624 0                422.17519553524  
! Port Impedance  261.644999538975 0                261.640608282996 0                

26.599           3.05491412113102E-005 118.085835641808 -47.9564356565633 -151.948210487298 -47.956435656563 -151.948210487274 2.97145142619743E-005 118.032103386627 
! Gamma  !      0                422.424118121429 0                422.424156880188 
! Port Impedance  261.579303072001 0                261.574912800848 0                

26.608           3.7379603364563E-005 117.749790619056 -47.8235348762299 -152.285021122984 -47.8235348762295 -152.285021122958 3.64761879075702E-005 117.695545614875 
! Gamma  !      0                422.673017024937 0                422.673055760872 
! Port Impedance  261.513722645217 0                261.509333357238 0                

26.617           4.40862488127988E-005 117.412968471738 -47.6901605426522 -152.622589974889 -47.6901605426516 -152.622589974862 4.3115246449421E-005 117.358204403562 
! Gamma  !      0                422.921853574431 0                422.921892287575 
! Port Impedance  261.448257956509 0                261.443869650058 0                

26.626           5.06594611837565E-005 117.075358926975 -47.5563086480947 -152.960927787178 -47.5563086480939 -152.960927787149 4.96220784187989E-005 117.020069364286 
! Gamma  !      0                423.170627879911 0                423.170666570296 
! Port Impedance  261.382908704824 0                261.378521378258 0                

26.635           5.70896165642857E-005 116.736951521525 -47.4219751334738 -153.300045491965 -47.4219751334729 -153.300045491935 5.59870648618156E-005 116.681129915667 
! Gamma  !      0                423.419340051087 0                423.419378718746 
! Port Impedance  261.317674590162 0                261.313288241841 0                

26.644           6.33670777013482E-005 116.397735597562 -47.2871558874689 -153.639954213591 -47.2871558874679 -153.63995421356 6.22005735307939E-005 116.341375279061 
! Gamma  !      0                423.667990197387 0                423.668028842352 
! Port Impedance  261.252555313571 0                261.248169941861 0                

26.653           6.94821879001408E-005 116.05770029834  -47.1518467456152 -153.980665273004 -47.1518467456139 -153.980665272973 6.82529527689022E-005 116.000794474143 
! Gamma  !      0                423.916578427953 0                423.916617050257 
! Port Impedance  261.187550577146 0                261.183166180416 0                

26.662           7.54252645730475E-005 115.71683456374  -47.0160434893749 -154.32219019227 -47.0160434893736 -154.322190192236 7.41345250822633E-005 115.659376314386 
! Gamma  !      0                424.165104851646 0                424.16514345132  
! Port Impedance  261.122660084019 0                261.118276660642 0                

26.671           8.11865924992096E-005 115.37512712569  -46.8797418451903 -154.664540699202 -46.8797418451888 -154.664540699169 7.98355803821794E-005 115.3171094024   
! Gamma  !      0                424.413569577044 0                424.41360815412  
! Port Impedance  261.057883538361 0                261.053501086714 0                

26.68            8.67564167059929E-005 115.032566503457 -46.7429374835138 -155.007728732127 -46.7429374835122 -155.007728732093 8.5346368864683E-005 114.973982125147 
! Gamma  !      0                424.661972712442 0                424.662011266953 
! Port Impedance  260.993220645371 0                260.988839163835 0                

26.689           9.21249349819932E-005 114.689140998813 -46.6056260178188 -155.351766444775 -46.605626017817 -155.351766444739 9.06570935312684E-005 114.629982649023 
! Gamma  !      0                424.910314365859 0                424.910352897836 
! Port Impedance  260.928671111276 0                260.924290598235 0                

26.698           9.72822900003607E-005 114.344838691061 -46.4678030035869 -155.696666211307 -46.467803003585 -155.696666211271 9.57579023045149E-005 114.285098914799 
! Gamma  !      0                425.158594645031 0                425.158633154507 
! Port Impedance  260.864234643322 0                260.859855097166 0                

26.707           0.000102218561037012 113.999647431916 -46.3294639372739 -156.042440631497 -46.3294639372719 -156.042440631461 0.000100638879732809 113.939318632415 
! Gamma  !      0                425.406813657419 0                425.406852144425 
! Port Impedance  260.799910949775 0                260.795532368896 0                

26.716           0.000106923755218149 113.653554840251 -46.1906042552519 -156.389102536049 -46.1906042552499 -156.389102536011 0.000105290038268734 113.592629275638 
! Gamma  !      0                425.654971510204 0                425.655009974772 
! Port Impedance  260.735699739914 0                260.731322122708 0                

26.725           0.000111387798353011 113.306548296685 -46.0512193327284 -156.736664992062 -46.0512193327263 -156.736664992025 0.000109701309059404 113.24501807655  
! Gamma  !      0                425.903068310293 0                425.903106752455 
! Port Impedance  260.671600724023 0                260.667224068892 0                

26.734           0.000115600525239998 112.958614938017 -45.9113044826402 -157.085141308669 -45.9113044826381 -157.085141308631 0.000113862532283455 112.896472019894 
! Gamma  !      0                426.151104164318 0                426.151142584105 
! Port Impedance  260.607613613393 0                260.603237918741 0                

26.743           0.000119551669475073 112.609741651501 -45.7708549545234 -157.43454504282 -45.7708549545212 -157.434545042782 0.000117763446930532 112.546977837244 
! Gamma  !      0                426.399079178634 0                426.399117576078 
! Port Impedance  260.543738120314 0                260.539363384548 0                

26.752           0.000123230852693023 112.259915068956 -45.6298659333566 -157.784890005246 -45.6298659333543 -157.784890005208 0.000121393680073418 112.19652200101  
! Gamma  !      0                426.646993459325 0                426.647031834457 
! Port Impedance  260.47997395807  0                260.475600179603 0                

26.761           0.000126627573272413 111.909121560699 -45.4883325383789 -158.136190266587 -45.4883325383766 -158.136190266548 0.000124742735534426 111.845090718274 
! Gamma  !      0                426.894847112203 0                426.894885465055 
! Port Impedance  260.416320840936 0                260.411948018184 0                

26.77            0.000129731194371161 111.557347229308 -45.34624982188  -158.488460163703 -45.3462498218775 -158.488460163665 0.000127799981940271 111.492669924433 
! Gamma  !      0                427.142640242807 0                427.142678573409 
! Port Impedance  260.352778484174 0                260.348406615556 0                

26.779           0.000132530931373703 111.204577903193 -45.2036127679629 -158.841714306178 -45.2036127679605 -158.841714306139 0.000130554640165391 111.139245276662 
! Gamma  !      0                427.390372956405 0                427.39041126479  
! Port Impedance  260.289346604028 0                260.284975687968 0                

26.788           0.000135015838607045 110.850799129984 -45.0604162912781 -159.195967583002 -45.0604162912756 -159.195967582964 0.000132995770040294 110.784802147183 
! Gamma  !      0                427.638045357999 0                427.638083644197 
! Port Impedance  260.226024917719 0                260.221654952644 0                

26.797           0.000137174795354592 110.495996169715 -44.9166552357278 -159.551235169464 -44.9166552357254 -159.551235169425 0.00013511225636154 110.42932561633  
! Gamma  !      0                427.885657552318 0                427.88569581636  
! Port Impedance  260.162813143443 0                260.158444127785 0                

26.806           0.000138996491092539 110.140153987813 -44.7723243731414 -159.907532534243 -44.7723243731389 -159.907532534205 0.000136892794133926 110.072800465407 
! Gamma  !      0                428.133209643826 0                428.133247885743 
! Port Impedance  260.099711000364 0                260.095342932557 0                

26.815           0.000140469409931431 109.783257247863 -44.627418401918 -160.264875446723 -44.6274184019154 -160.264875446684 0.000138325872998566 109.715211169332 
! Gamma  !      0                428.380701736719 0                428.380739956542 
! Port Impedance  260.036718208612 0                260.032351087094 0                

26.824           0.000141581814152963 109.42529030417  -44.4819319456389 -160.623279984513 -44.4819319456363 -160.623279984474 0.000139399760771619 109.356541889056 
! Gamma  !      0                428.628133934927 0                428.628172132688 
! Port Impedance  259.973834489276 0                259.969468312491 0                

26.833           0.000142321726876689 109.066237194079 -44.3358595516465 -160.982762541212 -44.3358595516439 -160.982762541174 0.000140102486116798 108.996776463749 
! Gamma  !      0                428.875506342117 0                428.875544517845 
! Port Impedance  259.911059564404 0                259.906694330798 0                

26.842           0.000142676913727413 108.706081630071 -44.1891956895891 -161.343339834401 -44.1891956895865 -161.343339834363 0.000140421820191562 108.635898402753 
! Gamma  !      0                429.12281906169  0                429.122857215416 
! Port Impedance  259.848393156997 0                259.844028865018 0                

26.851           0.000142634863489734 108.344806991613 -44.0419347499325 -161.705028913885 -44.0419347499299 -161.705028913847 0.00014034525730745 108.273890877281 
! Gamma  !      0                429.370072196783 0                429.370110328539 
! Port Impedance  259.785834991001 0                259.781471639103 0                

26.86            0.000142182767659056 107.982396316752 -43.8940710424343 -162.067847170189 -43.8940710424318 -162.067847170151 0.00013985999448882 107.910736711858 
! Gamma  !      0                429.617265850274 0                429.61730396009  
! Port Impedance  259.723384791309 0                259.71902237795  0                

26.869           0.000141307498835046 107.618832293452 -43.7455987945832 -162.431812343316 -43.7455987945806 -162.431812343278 0.000138952909837389 107.546418375499 
! Gamma  !      0                429.864400124777 0                429.864438212683 
! Port Impedance  259.661042283753 0                259.656680807395 0                

26.878           0.000139995587889988 107.254097250656 -43.5965121499992 -162.796942531786 -43.5965121499966 -162.796942531749 0.000137610539719879 107.180917972609 
! Gamma  !      0                430.111475122646 0                430.111513188673 
! Port Impedance  259.598807195104 0                259.59444665421  0                

26.887           0.000138233199827138 106.888173149075 -43.4468051667964 -163.163256201947 -43.4468051667939 -163.16325620191 0.000135819054616747 106.814217233595 
! Gamma  !      0                430.358490945976 0                430.358528990154 
! Port Impedance  259.536679253061 0                259.5323196461   0                

26.896           0.000136006108242245 106.521041571673 -43.2964718159053 -163.530772197595 -43.2964718159027 -163.530772197558 0.000133564233570208 106.446297505179 
! Gamma  !      0                430.605447696604 0                430.605485718962 
! Port Impedance  259.474658186253 0                259.470299511697 0                

26.905           0.000133299668332258 106.152683713857 -43.1455059793537 -163.899509749885 -43.1455059793511 -163.899509749849 0.000130831437192964 106.077139740409 
! Gamma  !      0                430.852345476106 0                430.852383476676 
! Port Impedance  259.412743724235 0                259.408385980559 0                

26.914           0.000130098788302666 105.783080373358 -42.9939014485064 -164.269488487576 -42.9939014485038 -164.269488487541 0.000127605579073611 105.706724488336 
! Gamma  !      0                431.099184385804 0                431.099222364616 
! Port Impedance  259.350935597477 0                259.346578783161 0                

26.923           0.000126387899129034 105.412211939771 -42.8416519222612 -164.640728447589 -42.8416519222586 -164.640728447553 0.000123871095540132 105.335031883376 
! Gamma  !      0                431.345964526764 0                431.346002483848 
! Port Impedance  259.289233537371 0                259.284877650897 0                

26.932           0.000122150922535756 105.040058383771 -42.6887510051996 -165.013250085916 -42.688751005197 -165.013250085881 0.000119611913629006 104.962041634308 
! Gamma  !      0                431.592685999796 0                431.592723935181 
! Port Impedance  259.227637276218 0                259.223282316072 0                

26.941           0.000117371237105151 104.666599245972 -42.5351922056923 -165.387074288885 -42.5351922056899 -165.387074288851 0.000114811417173106 104.587733012927 
! Gamma  !      0                431.839348905455 0                431.839386819172 
! Port Impedance  259.166146547226 0                259.1617925119   0                

26.95            0.000112031642339384 104.291813625416 -42.3809689339575 -165.762222384791 -42.380968933955 -165.762222384756 0.00010945241088099 104.212084842319 
! Gamma  !      0                432.085953344044 0                432.085991236123 
! Port Impedance  259.104761084512 0                259.100407972498 0                

26.959           0.000106114320630769 103.915680167695 -42.2260745000694 -166.138716155907 -42.226074500067 -166.138716155873 0.000103517082289855 103.835075484746 
! Gamma  !      0                432.332499415613 0                432.332537286082 
! Port Impedance  259.043480623088 0                259.039128432884 0                

26.968           9.96007969050583E-005 103.538177052666 -42.0705021119178 -166.516577850904 -42.0705021119154 -166.516577850871 9.69869614107746E-005 103.456682829133 
! Gamma  !      0                432.578987219958 0                432.579025068849 
! Port Impedance  258.982304898868 0                258.977953628973 0                

26.977           9.24718958855282E-005 103.159281981764 -41.9142448731154 -166.895830197672 -41.9142448731129 -166.89583019764 8.98428779754333E-005 103.076884278135 
! Gamma  !      0                432.825416856628 0                432.825454683969 
! Port Impedance  258.921233648653 0                258.916883297574 0                

26.986           8.4707696742454E-005 102.778972164887 -41.7572957808519 -167.27649641658 -41.7572957808495 -167.276496416548 8.20649160875487E-005 102.695656734768 
! Gamma  !      0                433.071788424919 0                433.07182623074  
! Port Impedance  258.860266610139 0                258.855917176382 0                

26.995           7.62874849870404E-005 102.39722430684  -41.599647723694 -167.658600234181 -41.5996477236917 -167.658600234149 7.36323661129568E-005 102.31297658859  
! Gamma  !      0                433.318102023878 0                433.31813980821  
! Port Impedance  258.799403521903 0                258.79505500398  0                

27.004           6.71897014437963E-005 102.014014593313 -41.441293479328 -168.042165897382 -41.4412934793256 -168.042165897351 6.45236736365744E-005 101.928819701407 
! Gamma  !      0                433.564357752307 0                433.564395515177 
! Port Impedance  258.738644123405 0                258.734296519831 0                

27.013           5.73918880736085E-005 101.629318676388 -41.2822257122447 -168.427218188102 -41.2822257122424 -168.427218188072 5.47163852797015E-005 101.543161392496 
! Gamma  !      0                433.810555708755 0                433.810593450194 
! Port Impedance  258.677988154983 0                258.673641464275 0                

27.022           4.68706304641061E-005 101.243111659542 -41.122436971365 -168.813782438426 -41.1224369713628 -168.813782438397 4.4187091188475E-005 101.155976423313 
! Gamma  !      0                434.056695991529 0                434.056733711566 
! Port Impedance  258.617435357847 0                258.613089578528 0                

27.031           3.56014967325325E-005 100.85536808213  -40.9619196876029 -169.201884546293 -40.9619196876007 -169.201884546264 3.29113639213282E-005 100.767238981673 
! Gamma  !      0                434.302778698688 0                434.302816397352 
! Port Impedance  258.556985474079 0                258.552640604675 0                

27.04            2.35589726403162E-005 100.466061903333 -40.8006661713657 -169.591550991722 -40.8006661713635 -169.591550991694 2.08636935693668E-005 100.376922665377 
! Gamma  !      0                434.548803928046 0                434.548841605367 
! Port Impedance  258.496638246627 0                258.492294285666 0                

27.049           1.07163926220777E-005 100.075166485539 -40.6386686099877 -169.982808853614 -40.6386686099855 -169.982808853587 8.01741875260898E-006 99.9850004652667 
! Gamma  !      0                434.794771777173 0                434.794809433179 
! Port Impedance  258.436393419301 0                258.432050365316 0                

27.058           -2.95413352482405E-006 99.6826545771391 -40.4759190650978 -170.375685827141 -40.4759190650957 -170.375685827114 -5.65534667887571E-006 99.5914447476746 
! Gamma  !      0                435.040682343396 0                435.040719978117 
! Port Impedance  258.376250736773 0                258.371908588299 0                

27.067           -1.74817986126031E-005 99.288498294714  -40.3124094699163 -170.770210241755 -40.3124094699143 -170.770210241728 -2.01837916278626E-005 99.1962272362569 
! Gamma  !      0                435.286535723799 0                435.286573337263 
! Port Impedance  258.316209944566 0                258.311868700143 0                

27.076           -3.28971809830006E-005 98.8926691045829 -40.1481316264807 -171.166411079838 -40.1481316264786 -171.166411079812 -3.5598490691117E-005 98.7993189931705 
! Gamma  !      0                435.532332015224 0                435.532369607461 
! Port Impedance  258.256270789059 0                258.251930447229 0                

27.085           -4.92323327513541E-005 98.4951378036896 -39.9830772027968 -171.56431799603 -39.9830772027947 -171.564317996005 -5.19314924159742E-005 98.4006903995745 
! Gamma  !      0                435.778071314273 0                435.778108885312 
! Port Impedance  258.196433017477 0                258.192093576786 0                

27.094           -6.65208737484047E-005 98.0958744997969 -39.8172377299145 -171.963961337244 -39.8172377299125 -171.963961337219 -6.92164132363327E-005 98.0003111354233 
! Gamma  !      0                436.023753717308 0                436.023791267177 
! Port Impedance  258.13669637789  0                258.132357836888 0                

27.103           -8.47980915229056E-005 97.6948485909595 -39.6506045989246 -172.36537216342 -39.6506045989226 -172.365372163396 -8.74885374916271E-005 97.5981501585236 
! Gamma  !      0                436.269379320449 0                436.269416849177 
! Port Impedance  258.077060619209 0                258.072722976448 0                

27.112           -0.000104101047865548 97.2920287442441 -39.483169057874 -172.76858226904 -39.4831690578721 -172.768582269017 -0.000106784923983509 97.1941756828196 
! Gamma  !      0                436.514948219581 0                436.514985727196 
! Port Impedance  258.017525491184 0                258.01318874522  0                

27.121           -0.000124468692339857 96.8873828736644 -39.3149222085984 -173.173624205431 -39.3149222085965 -173.173624205408 -0.000127144519479707 96.7883551558778 
! Gamma  !      0                436.760460510348 0                436.76049799688  
! Port Impedance  257.958090744396 0                257.95375489379  0                

27.13            -0.000145941983223798 96.4808781172952 -39.1458550034676 -173.580531303903 -39.1458550034657 -173.580531303881 -0.000148608279720209 96.38065523553   
! Gamma  !      0                437.005916288161 0                437.005953753637 
! Port Impedance  257.89875613026  0                257.894421173574 0                

27.139           -0.000168564016530168 96.0724808135315 -38.9759582420431 -173.989337699749 -38.9759582420413 -173.989337699728 -0.000171219298402891 95.9710417656438 
! Gamma  !      0                437.25131564819  0                437.25135309264  
! Port Impedance  257.839521401016 0                257.835187336817 0                

27.148           -0.000192380163567519 95.6621564764532 -38.8052225676432 -174.400078357154 -38.8052225676414 -174.400078357133 -0.0001950229447878 95.5594797509769 
! Gamma  !      0                437.496658685374 0                437.496696108825 
! Port Impedance  257.780386309727 0                257.776053136584 0                

27.157           -0.000217438217754235 95.2498697702547 -38.6336384638137 -174.812789095042 -38.633638463812 -174.812789095022 -0.000220067010518895 95.145933331076  
! Gamma  !      0                437.741945494414 0                437.741982896895 
! Port Impedance  257.721350610278 0                257.717018326765 0                

27.166           -0.00024378855127599 94.8355844826987 -38.4611962507012 -175.227506613916 -38.4611962506995 -175.227506613896 -0.000246401866293989 94.7303657531776 
! Gamma  !      0                437.98717616978  0                437.987213551319 
! Port Impedance  257.662414057369 0                257.658082662061 0                

27.175           -0.000271484282388128 94.4192634975497 -38.2878860813257 -175.644268523728 -38.2878860813241 -175.644268523709 -0.00027408062918926 94.3127393440636 
! Gamma  !      0                438.232350805707 0                438.232388166333 
! Port Impedance  257.603576406514 0                257.599245897992 0                

27.184           -0.000300581454104889 94.0008687659388 -38.1136979377493 -176.06311337283 -38.1136979377477 -176.063113372812 -0.000303159341362876 93.8930154808261 
! Gamma  !      0                438.477469496198 0                438.477506835938 
! Port Impedance  257.544837414036 0                257.540507790882 0                

27.193           -0.000331139225112005 93.5803612766145 -37.9386216271379 -176.484080678052 -37.9386216271364 -176.484080678035 -0.000333697160987784 93.4711545604901 
! Gamma  !      0                438.722532335026 0                438.722569653909 
! Port Impedance  257.486196837066 0                257.481868097866 0                

27.202           -0.000363220073858059 93.1577010250222 -37.7626467777126 -176.907210955964 -37.7626467777111 -176.907210955947 -0.000365756566365175 93.0471159684396 
! Gamma  !      0                438.96753941573  0                438.967576713784 
! Port Impedance  257.427654433535 0                257.42332657688  0                

27.211           -0.000396890016780117 92.7328469811637 -37.5857628345864 -177.332545755369 -37.5857628345849 -177.332545755353 -0.000399403574161612 92.6208580455939 
! Gamma  !      0                439.212490831623 0                439.212528108876 
! Port Impedance  257.369209962178 0                257.364882986659 0                

27.22            -0.000432218841732256 92.3057570561746 -37.4079590554844 -177.760127691103 -37.4079590554829 -177.760127691087 -0.000434707972864483 92.1923380542739 
! Gamma  !      0                439.457386675787 0                439.457423932265 
! Port Impedance  257.310863182522 0                257.306537086736 0                

27.229           -0.000469280357793852 91.8763880675622 -37.2292245063419 -178.190000479177 -37.2292245063405 -178.190000479161 -0.000471743572619124 91.7615121426954 
! Gamma  !      0                439.702227041074 0                439.702264276807 
! Port Impedance  257.252613854889 0                257.248288637436 0                

27.238           -0.000508152662684902 91.444695703037  -37.0495480567773 -178.622208973348 -37.0495480567759 -178.622208973333 -0.000510588472654657 91.3283353080251 
! Gamma  !      0                439.94701202011  0                439.947049235125 
! Port Impedance  257.194461740391 0                257.190137399873 0                

27.247           -0.000548918429163559 91.0106344828745 -36.8689183754365 -179.056799203179 -36.8689183754351 -179.056799203165 -0.00055132534771517 90.8927613579315 
! Gamma  !      0                440.191741705295 0                440.19177889962  
! Port Impedance  257.136406600926 0                257.132083135948 0                

27.256           -0.000591665211858553 90.5741577207306 -36.6873239252034 -179.49381841366 -36.687323925202 -179.493818413646 -0.00059404175492192 90.4547428705531 
! Gamma  !      0                440.4364161888   0                440.436453362462 
! Port Impedance  257.078448199175 0                257.074125608347 0                

27.265           -0.000636485776124598 90.135217482841  -36.5047529582738 -179.933315106463 -36.5047529582726 -179.93331510645 -0.000638830462636331 90.0142311528127 
! Gamma  !      0                440.681035562573 0                440.681072715601 
! Port Impedance  257.020586298599 0                257.016264580532 0                

27.274           -0.000683478450677157 89.6937645455204 -36.3211935110869 179.624660917082 -36.3211935110857 179.624660917095 -0.000685789803144769 89.5711761969914 
! Gamma  !      0                440.925599918336 0                440.925637050756 
! Port Impedance  256.962820663435 0                256.958499816746 0                
