! Touchstone file from project Ka_PF
! Exported from HFSS 15.0.0
! Variables:
!  AA = 0.34in
!  BB = 0.145in
!  M01 = 0.1638in
!  M11 = 0.2166in
!  M12 = 0.1073in
!  M22 = 0.2395in
!  PL = 0.3in
!  RR = 0.035in
!  TT = 0.04in
!Data is not renormalized
# GHZ S DB
! Modal data exported
! Port[1] = 1:1
! Port[2] = 2:1
26.5             -7.71137533285469E-005 120.185068781071 -47.5065632047005 -149.778974515537 -47.5065632047008 -149.778974515533 -7.71137549119867E-005 120.256982189612 
! Gamma  !      -0               419.682052886699 -0               419.682072225394 
! Port Impedance  262.304870730552 0                262.307474740406 0                

26.509           -7.68968864114246E-005 119.84686840421  -47.374290490074 -150.117209921776 -47.3742904900743 -150.117209921773 -7.68583296032588E-005 119.919236974636 
! Gamma  !      0                419.931645044958 0                419.931664372158 
! Port Impedance  262.23799789468  0                262.240601241099 0                

26.518           -7.67824005488421E-005 119.507889001688 -47.2415505161276 -150.456207092542 -47.241550516128 -150.456207092541 -7.67069045629496E-005 119.580717856885 
! Gamma  !      0                420.181173620035 0                420.181192935758 
! Port Impedance  262.171244177834 0                262.173846861998 0                

26.527           -7.67788892134535E-005 119.168120086214 -47.1083393488942 -150.795976829029 -47.1083393488946 -150.795976829029 -7.66680570362954E-005 119.241414435631 
! Gamma  !      0                420.430638725141 0                420.430658029403 
! Port Impedance  262.104609267055 0                262.107211290143 0                

26.536           -7.68949370303014E-005 118.827550976917 -46.9746530044774 -151.13653012141 -46.9746530044778 -151.13653012141 -7.67503553418271E-005 118.901316118451 
! Gamma  !      0                420.680040473191 0                420.680059766009 
! Port Impedance  262.038092850491 0                262.040694213678 0                

26.545           -7.71391258407367E-005 118.486170795052 -46.8404874481959 -151.477878153122 -46.8404874481963 -151.477878153123 -7.69623649420539E-005 118.560412116976 
! Gamma  !      0                420.929378976802 0                420.929398258191 
! Port Impedance  261.971694617393 0                261.974295321852 0                

26.554           -7.75200411068333E-005 118.143968459584 -46.7058385937074 -151.820032305273 -46.7058385937077 -151.820032305275 -7.73126548363192E-005 118.218691442527 
! Gamma  !      0                421.178654348296 0                421.178673618274 
! Port Impedance  261.905414258109 0                261.908014305008 0                

26.563           -7.80462786302635E-005 117.800932682655 -46.5707023021141 -152.163004161167 -46.5707023021146 -152.163004161169 -7.78098042729383E-005 117.876142901638 
! Gamma  !      0                421.427866699702 0                421.427885958285 
! Port Impedance  261.839251464078 0                261.841850854584 0                

26.572           -7.87264516136013E-005 117.45705196492  -46.4350743810503 -152.50680551095 -46.4350743810506 -152.506805510954 -7.84624098288357E-005 117.53275509144  
! Gamma  !      0                421.677016142755 0                421.677035389959 
! Port Impedance  261.773205927828 0                261.775804663103 0                

26.581           -7.95691981132379E-005 117.112314590756 -46.2989505837477 -152.851448356398 -46.2989505837481 -152.851448356401 -7.92790928296857E-005 117.188516394934 
! Gamma  !      0                421.926102788898 0                421.926122024739 
! Port Impedance  261.707277342968 0                261.709875424173 0                

26.59            -8.05831888578763E-005 116.766708623338 -46.162326608083 -153.196944915819 -46.1623266080834 -153.196944915824 -8.02685071848115E-005 116.843414976115 
! Gamma  !      0                422.175126749283 0                422.175145973777 
! Port Impedance  261.641465404186 0                261.644062832477 0                

26.599           -8.17771354808263E-005 116.420221899571 -46.0251980956037 -153.543307629114 -46.025198095604 -153.543307629119 -8.14393476117764E-005 116.497438774971 
! Gamma  !      0                422.424088134771 0                422.424107347936 
! Port Impedance  261.575769807241 0                261.578366583772 0                

26.608           -8.31597992027483E-005 116.072842024887 -45.8875606305311 -153.89054916296 -45.8875606305315 -153.890549162965 -8.28003583104589E-005 116.150575502337 
! Gamma  !      0                422.672987055937 0                422.673006257787 
! Port Impedance  261.510190248961 0                261.512786374883 0                

26.617           -8.47399999417089E-005 115.724556367889 -45.7494097387446 -154.238682416157 -45.749409738745 -154.238682416162 -8.43603420808332E-005 115.8028126346   
! Gamma  !      0                422.921823623065 0                422.921842813617 
! Port Impedance  261.444726427238 0                261.4473219037   0                

26.626           -8.65266259392733E-005 115.375352054837 -45.6107408867405 -154.587720525114 -45.6107408867409 -154.587720525121 -8.61281699346056E-005 115.454137408259 
! Gamma  !      0                423.170597946152 0                423.170617125422 
! Port Impedance  261.379378041022 0                261.381972869168 0                

26.635           -8.85286438794966E-005 115.02521596399  -45.4715494805692 -154.937676869505 -45.4715494805696 -154.937676869512 -8.81127912016794E-005 115.104536814321 
! Gamma  !      0                423.419310134911 0                423.419329302916 
! Port Impedance  261.314144790317 0                261.316738971288 0                

26.644           -9.07551095384333E-005 114.674134719765 -45.331830864749 -155.288565078072 -45.3318308647493 -155.288565078079 -9.03232442018523E-005 114.753997592543 
! Gamma  !      0                423.667960298768 0                423.667979455524 
! Port Impedance  261.249026376175 0                261.251619911111 0                

26.653           -9.32151790403558E-005 114.322094686748 -45.1915803211542 -155.640399034609 -45.1915803211546 -155.640399034616 -9.27686674769352E-005 114.402506225503 
! Gamma  !      0                423.916548546868 0                423.916567692389 
! Port Impedance  261.184022500695 0                261.186615390731 0                

26.662           -9.59181206801896E-005 113.969081963513 -45.0507930678805 -155.993192884116 -45.0507930678809 -155.993192884123 -9.54583116074093E-005 114.050048932502 
! Gamma  !      0                424.165074988069 0                424.165094122373 
! Port Impedance  261.119132867013 0                261.121725113283 0                

26.671           -9.8873327415362E-005 113.615082376267 -44.9094642580823 -156.346961039129 -44.9094642580827 -156.346961039136 -9.84015517071763E-005 113.696611663278 
! Gamma  !      0                424.413539730949 0                424.413558854051 
! Port Impedance  261.054357179303 0                261.056948782937 0                

26.68            -0.000102090330005862 113.26008147231  -44.7675889787855 -156.701718186239 -44.7675889787858 -156.701718186248 -0.000101607900560731 113.34218009155  
! Gamma  !      0                424.661942883806 0                424.661961995722 
! Port Impedance  260.989695142768 0                260.992286104894 0                

26.689           -0.000105578810915351 112.904064513296 -44.6251622496727 -157.057479292808 -44.6251622496731 -157.057479292816 -0.000105087022502104 112.986739608357 
! Gamma  !      0                424.910284554656 0                424.910303655402 
! Port Impedance  260.925146463639 0                260.92773678538  0                

26.698           -0.000109348618920307 112.547016468295 -44.4821790218409 -157.414259613872 -44.4821790218413 -157.41425961388 -0.000108848748044254 112.630275315207 
! Gamma  !      0                425.158564851237 0                425.158583940829 
! Port Impedance  260.860710849167 0                260.863300531645 0                

26.707           -0.00011340978457186 112.188922006651 -44.3386341765303 -157.772074699263 -44.3386341765306 -157.772074699272 -0.000112903089314888 112.272772017021 
! Gamma  !      0                425.406783881009 0                425.406802959462 
! Port Impedance  260.796388007621 0                260.798977051954 0                

26.716           -0.000117772536479497 111.829765490619 -44.1945225238241 -158.130940400939 -44.1945225238245 -158.130940400948 -0.000117260256332441 111.914214214856 
! Gamma  !      0                425.654941751154 0                425.654960818485 
! Port Impedance  260.732177648282 0                260.734766055586 0                

26.725           -0.000122447318503427 111.469530967783 -44.049838801319 -158.490872880533 -44.0498388013194 -158.490872880542 -0.000121930674216783 111.554586098424 
! Gamma  !      0                425.903038568579 0                425.903057624802 
! Port Impedance  260.66807948144  0                260.670667252829 0                

26.734           -0.000127444807930871 111.108202163244 -43.9045776727631 -158.851888617136 -43.9045776727636 -158.851888617145 -0.000126925001328862 111.193871538367 
! Gamma  !      0                426.151074439914 0                426.151093485046 
! Port Impedance  260.60409321839  0                260.606680354972 0                

26.743           -0.000132775934633386 110.745762471565 -43.7587337266645 -159.214004415313 -43.7587337266648 -159.214004415321 -0.00013225414844154 110.832054078308 
! Gamma  !      0                426.399049471516 0                426.399068505573 
! Port Impedance  260.540218571424 0                260.542805074307 0                

26.752           -0.000138451901336431 110.382194948473 -43.6123014748647 -159.577237413367 -43.6123014748651 -159.577237413375 -0.000137929298991801 110.469116926651 
! Gamma  !      0                426.64696376947  0                426.646982792466 
! Port Impedance  260.47645525383  0                260.479041124118 0                

26.761           -0.000144484205005998 110.0174823023   -43.4652753510809 -159.941605091858 -43.4652753510813 -159.941605091867 -0.000143961930462572 110.105042948134 
! Gamma  !      0                426.894817439585 0                426.894836451537 
! Port Impedance  260.412802979889 0                260.415388218682 0                

26.77            -0.000150884659468096 109.651606885161 -43.3176497094124 -160.307125282386 -43.3176497094128 -160.307125282395 -0.000150363837002202 109.739814655109 
! Gamma  !      0                427.142610587403 0                427.142629588325 
! Port Impedance  260.349261464864 0                260.351846073262 0                

26.779           -0.000157665419328598 109.284550683857 -43.1694188228125 -160.673816176647 -43.1694188228128 -160.673816176655 -0.000157147153317327 109.373414198566 
! Gamma  !      0                427.390343318191 0                427.3903623081   
! Port Impedance  260.285830425003 0                260.288414404102 0                

26.788           -0.00016483900522342 108.916295310486 -43.0205768815229 -161.041696335771 -43.0205768815233 -161.04169633578 -0.000164324379945221 109.005823358856 
! Gamma  !      0                427.63801573695  0                427.63803471586  
! Port Impedance  260.222509577533 0                260.225092928425 0                

26.797           -0.000172418330583249 108.546821992766 -42.8711179914729 -161.410784699962 -42.8711179914732 -161.41078469997 -0.000171908409970319 108.63702353614  
! Gamma  !      0                427.88562794841  0                427.885646916338 
! Port Impedance  260.159298640651 0                260.161881364427 0                

26.806           -0.000180416729890698 108.17611156404  -42.7210361726374 -161.781100598433 -42.7210361726378 -161.781100598442 -0.000179912557314162 108.266995740517 
! Gamma  !      0                428.133180057035 0                428.133199013996 
! Port Impedance  260.096197333525 0                260.098779431272 0                

26.815           -0.000188847988618963 107.804144452973 -42.5703253573579 -162.152663759669 -42.5703253573583 -162.152663759678 -0.000188350586625839 107.895720581853 
! Gamma  !      0                428.380672167022 0                428.38069111303  
! Port Impedance  260.03320537629  0                260.035786849092 0                

26.824           -0.000197726374906035 107.430900672906 -42.4189793886216 -162.525494322009 -42.4189793886219 -162.525494322017 -0.000197236744984175 107.523178259272 
! Gamma  !      0                428.6281043823   0                428.628123317371 
! Port Impedance  259.970322490038 0                259.972903338978 0                

26.833           -0.000207066673087992 107.056359810875 -42.2669920182987 -162.899612844576 -42.2669920182991 -162.899612844584 -0.000206585795390525 107.149348550309 
! Gamma  !      0                428.875476806535 0                428.875495730685 
! Port Impedance  259.907548396821 0                259.910128622977 0                

26.842           -0.000216884219219697 106.680501016268 -42.1143569053376 -163.275040318561 -42.114356905338 -163.275040318569 -0.000216413052289469 106.774210799718 
! Gamma  !      0                429.12278954313  0                429.122808456373 
! Port Impedance  259.844882819642 0                259.847462424091 0                

26.851           -0.000227194938691953 106.30330298911  -41.9610676139153 -163.651798178871 -41.9610676139157 -163.651798178879 -0.000226734419185979 106.397743907905 
! Gamma  !      0                429.370042695222 0                429.370061597574 
! Port Impedance  259.782325482452 0                259.784904466267 0                

26.86            -0.000238015386100482 105.924743967968 -41.8071176115421 -164.029908316168 -41.8071176115425 -164.029908316175 -0.000237566428485472 106.019926318987 
! Gamma  !      0                429.617236365688 0                429.617255257164 
! Port Impedance  259.719876110148 0                259.7224544744   0                

26.869           -0.000249362787495087 105.544801717447 -41.6525002671206 -164.409393089293 -41.652500267121 -164.4093930893  -0.000248926283746829 105.640736008452 
! Gamma  !      0                429.864370657142 0                429.864389537757 
! Port Impedance  259.657534428566 0                259.660112174323 0                

26.878           -0.000261255085177866 105.163453515278 -41.4972088489556 -164.790275338116 -41.497208848956 -164.790275338124 -0.000260831904453619 105.260150470415 
! Gamma  !      0                430.111445671938 0                430.111464541708 
! Port Impedance  259.595300164478 0                259.597877292805 0                

26.887           -0.00027371098520106 104.78067613897  -41.341236522715 -165.172578396808 -41.3412365227154 -165.172578396815 -0.000273301973515802 104.878146704439 
! Gamma  !      0                430.358461512172 0                430.358480371111 
! Port Impedance  259.533173045588 0                259.535749557549 0                

26.896           -0.000286750007768138 104.396445852009 -41.18457634934  -165.556326107558 -41.1845763493404 -165.556326107565 -0.00028635598764575 104.494701201919 
! Gamma  !      0                430.60541827968  0                430.605437127803 
! Port Impedance  259.471152800529 0                259.473728697183 0                

26.905           -0.000300392540705122 104.010738389597 -41.0272212829021 -165.941542834762 -41.0272212829025 -165.941542834768 -0.000300014310817038 104.109789932    
! Gamma  !      0                430.852316076039 0                430.852334913361 
! Port Impedance  259.409239158858 0                259.411814441263 0                

26.914           -0.000314659896209648 103.623528943894 -40.8691641684073 -166.328253479683 -40.8691641684077 -166.328253479689 -0.000314298231009659 103.723388327025 
! Gamma  !      0                431.099155002572 0                431.099173829108 
! Port Impedance  259.347431851051 0                259.350006520261 0                

26.923           -0.000329574371110383 103.234792148763 -40.7103977395441 -166.716483495626 -40.7103977395445 -166.716483495632 -0.000329230020446292 103.33547126747  
! Gamma  !      0                431.345935160342 0                431.345953976108 
! Port Impedance  259.285730608501 0                259.288304665569 0                

26.932           -0.000345159310867472 102.844502063985 -40.5509146163745 -167.106258903627 -40.5509146163749 -167.106258903633 -0.000344832999576365 102.94601306637  
! Gamma  !      0                431.592656650162 0                431.592675455171 
! Port Impedance  259.224135163514 0                259.226708609488 0                

26.941           -0.000361439177551493 102.452632158925 -40.3907073029664 -167.497606308689 -40.3907073029668 -167.497606308695 -0.000361131605041514 102.554987453204 
! Gamma  !      0                431.839319572585 0                431.839338366854 
! Port Impedance  259.162645249302 0                259.165218085229 0                

26.95            -0.000378439622093381 102.059155295624 -40.2297681849655 -167.890552916581 -40.2297681849659 -167.890552916587 -0.000378151461916835 102.16236755721  
! Gamma  !      0                432.085924027915 0                432.085942811457 
! Port Impedance  259.101260599983 0                259.103832826907 0                

26.959           -0.000396187561075632 101.664043711305 -40.0680895271046 -168.285126551236 -40.068089527105 -168.285126551242 -0.000395919460477981 101.768125890125 
! Gamma  !      0                432.332470116202 0                432.332488889032 
! Port Impedance  259.039980950575 0                259.042552569538 0                

26.968           -0.000414711258391064 101.26726900025  -39.905663470649 -168.681355672751 -39.9056634706494 -168.681355672757 -0.000414463837841605 101.372234328304 
! Gamma  !      0                432.578957937242 0                432.578976699375 
! Port Impedance  258.978806036993 0                258.981377049034 0                

26.977           -0.000434040412102193 100.868802095039 -39.7424820307763 -169.079269396037 -39.7424820307767 -169.079269396042 -0.000433814264810282 100.974664094209 
! Gamma  !      0                432.825387590584 0                432.825406342035 
! Port Impedance  258.917735596045 0                258.9203060022   0                

26.986           -0.000454206246841088 100.468613247113 -39.5785370938872 -169.478897510129 -39.5785370938876 -169.478897510135 -0.000454001938255966 100.575385737238 
! Gamma  !      0                433.071759175524 0                433.071777916308 
! Port Impedance  258.856769365427 0                258.859339166729 0                

26.995           -0.000475241612171563 100.066672006633 -39.4138204148475 -169.8802704982  -39.4138204148478 -169.880270498205 -0.000475059679454231 100.174369113854 
! Gamma  !      0                433.31807279111  0                433.318091521241 
! Port Impedance  258.79590708372  0                258.798476281201 0                

27.004           -0.000497181087299002 99.6629472016165 -39.2483236141569 -170.283419558289 -39.2483236141573 -170.283419558294 -0.000497022038790232 99.7715833670016 
! Gamma  !      0                433.564328536142 0                433.564347255635 
! Port Impedance  258.735148490389 0                258.737717085076 0                

27.013           -0.000520061092573879 99.257406916304  -39.0820381750446 -170.688376624795 -39.082038175045 -170.6883766248  -0.000519925407220773 99.3669969047712 
! Gamma  !      0                433.810526509171 0                433.81054521804  
! Port Impedance  258.674493325773 0                258.677061318693 0                

27.022           -0.000543920008317118 98.8500184687305 -38.9149554404876 -171.095174390757 -38.914955440488 -171.095174390761 -0.00054380813509388 98.9605773782754 
! Gamma  !      0                434.056666808504 0                434.056685506763 
! Port Impedance  258.613941331088 0                258.616508723264 0                

27.031           -0.000568798301385544 98.4407483874704 -38.7470666101509 -171.503846330951 -38.7470666101513 -171.503846330955 -0.00056871065869111 98.5522916587116 
! Gamma  !      0                434.302749532198 0                434.302768219863 
! Port Impedance  258.553492248418 0                258.556059040871 0                

27.04            -0.000594738660177349 98.0295623875131 -38.5783627372465 -171.914426725861 -38.5783627372469 -171.914426725865 -0.000594675635202164 98.142105813569  
! Gamma  !      0                434.548774778069 0                434.548793455153 
! Port Impedance  258.493145820714 0                258.495712014462 0                

27.049           -0.000621786138522052 97.6164253452342 -38.4088347253089 -172.326950686529 -38.4088347253092 -172.326950686533 -0.000621748086603278 97.7299850819443 
! Gamma  !      0                434.794742643686 0                434.794761310205 
! Port Impedance  258.432901791791 0                258.43546738785  0                

27.058           -0.000649988309223543 97.2013012724216 -38.2384733248841 -172.741454180361 -38.2384733248845 -172.741454180365 -0.000649975553157834 97.3158938489265 
! Gamma  !      0                435.040653226377 0                435.040671882345 
! Port Impedance  258.372759906322 0                258.375324905704 0                

27.067           -0.000679395427892801 96.7841532893142 -38.0672691301314 -173.157974057897 -38.0672691301317 -173.1579740579  -0.000679408257245223 96.8997956190094 
! Gamma  !      0                435.286506623226 0                435.286525268656 
! Port Impedance  258.312719909836 0                258.315284313552 0                

27.076           -0.000710060607826597 96.3649435966081 -37.8952125753324 -173.57654808061 -37.8952125753327 -173.576548080612 -0.000710099278198081 96.4816529884868 
! Gamma  !      0                435.532302931074 0                435.532321565982 
! Port Impedance  258.252781548712 0                258.255345357771 0                

27.085           -0.000742040006768662 95.9436334463853 -37.7222939313076 -173.997214949779 -37.7222939313079 -173.997214949782 -0.000742104739045131 96.0614276167862 
! Gamma  !      0                435.778042246524 0                435.778060870924 
! Port Impedance  258.192944570181 0                258.195507785587 0                

27.094           -0.000775393026398662 95.5201831119131 -37.5485033017352 -174.420014336476 -37.5485033017356 -174.420014336479 -0.000775484005963508 95.6390801966907 
! Gamma  !      0                436.023724665937 0                436.023743279843 
! Port Impedance  258.133208722315 0                258.135771345072 0                

27.103           -0.000810182525504439 95.0945518562639 -37.373830619371 -174.84498691272 -37.3738306193714 -174.844986912723 -0.000810299901438463 95.2145704233991 
! Gamma  !      0                436.269350285435 0                436.269368888861 
! Port Impedance  258.073573754029 0                258.076135785138 0                

27.112           -0.00084647504787804 94.6666978997011 -37.1982656421657 -175.272174383861 -37.1982656421661 -175.272174383864 -0.000846618932109229 94.7878569623707 
! Gamma  !      0                436.514919200901 0                436.514937793862 
! Port Impedance  258.014039415074 0                258.016600855534 0                

27.121           -0.000884341066006214 94.236578385773  -37.0217979492765 -175.701619522241 -37.0217979492769 -175.701619522243 -0.000884511532442152 94.3588974158972 
! Gamma  !      0                436.76043150798  0                436.76045009049  
! Port Impedance  257.954605456039 0                257.957166306843 0                

27.13            -0.000923855241756472 93.804149346052  -36.8444169369697 -176.133366202198 -36.8444169369701 -176.1333662022  -0.000924052325389738 93.9276482883418 
! Gamma  !      0                437.005887302083 0                437.005905874155 
! Port Impedance  257.895271628338 0                257.89783189048  0                

27.139           -0.000965096705370094 93.3693656634608 -36.6661118144126 -176.567459436474 -36.6661118144129 -176.567459436475 -0.000965320401334454 93.4940649499856 
! Gamma  !      0                437.25128667838  0                437.25130524003  
! Port Impedance  257.836037684215 0                257.838597358687 0                

27.148           -0.0010081493541355 92.9321810341114 -36.486871599349 -177.003945414092 -36.4868715993493 -177.003945414094 -0.00100839961674182 93.0581015994101 
! Gamma  !      0                437.49662973181  0                437.496648283051 
! Port Impedance  257.776903376738 0                257.779462464527 0                

27.157           -0.00105310217224981 92.492547927591  -36.3066851136571 -177.442871539781 -36.3066851136574 -177.442871539783 -0.00105337891398822 92.6197112243504 
! Gamma  !      0                437.741916557074 0                437.741935097921 
! Port Impedance  257.717868459793 0                257.720426961886 0                

27.166           -0.00110004957352067 92.0504175456163 -36.1255409787849 -177.884286475007 -36.1255409787853 -177.884286475008 -0.0011003526640173 92.178845560942  
! Gamma  !      0                437.987147248642 0                437.987165779108 
! Port Impedance  257.658932688085 0                257.661490605464 0                

27.175           -0.00114909176867257 91.6057397789792 -35.9434276110607 -178.328240180707 -35.943427611061 -178.328240180709 -0.00114942103361835 91.7354550512849 
! Gamma  !      0                438.232321900749 0                438.232340420849 
! Port Impedance  257.60009581713  0                257.602653150776 0                

27.184           -0.00120033515916924 91.1584631626994 -35.7603332168739 -178.774783961798 -35.7603332168743 -178.7747839618  -0.00120069037921196 91.2894887992423 
! Gamma  !      0                438.477440607399 0                438.477459117147 
! Port Impedance  257.541357603255 0                257.543914354147 0                

27.193           -0.00125389275965428 90.7085348292954 -35.5762457877242 -179.223970513549 -35.5762457877246 -179.22397051355 -0.00125427366924434 90.840894524387  
! Gamma  !      0                438.722503462363 0                438.722521961775 
! Port Impedance  257.482717803593 0                257.485273972707 0                

27.202           -0.00130988465124399 90.2559004600801 -35.3911530951331 -179.675853969913 -35.3911530951335 -179.675853969914 -0.00131029093745205 90.3896185140034 
! Gamma  !      0                438.967510559183 0                438.967529048275 
! Port Impedance  257.424176176079 0                257.42673176439  0                

27.211           -0.00136843846817526 89.8005042343832 -35.2050426854159 179.869510046089 -35.2050426854162 179.869510046088 -0.00136886976945394 89.935605573047  
! Gamma  !      0                439.212461991169 0                439.212480469967 
! Port Impedance  257.365732479451 0                257.368287487929 0                

27.22            -0.00142968992038114 89.3422887765954 -35.0179018743099 179.412064369818 -35.0179018743102 179.412064369817 -0.00143014582530441 89.4787989719614 
! Gamma  !      0                439.457357851404 0                439.457376319664 
! Port Impedance  257.30738647324  0                257.309940902854 0                

27.229           -0.00149378335500312 88.8811951009231 -34.8297177414539 178.951750240206 -34.8297177414542 178.951750240206 -0.00149426340095061 89.0191403922399 
! Gamma  !      0                439.702198232742 0                439.7022166909   
! Port Impedance  257.24913791777  0                257.251691769487 0                

27.238           -0.00156087235988852 88.4171625537374 -34.6404771247159 178.488507242559 -34.6404771247163 178.488507242558 -0.00156137603168823 88.5565698696199 
! Gamma  !      0                439.946983227807 0                439.947001675707 
! Port Impedance  257.190986574156 0                257.19353984894  0                

27.247           -0.00163112041255839 87.950128753395  -34.4501666143656 178.022273248847 -34.4501666143659 178.022273248847 -0.00163164714108972 88.0910257347883 
! Gamma  !      0                440.191712928999 0                440.191731366647 
! Port Impedance  257.1329322043   0                257.135484903113 0                

27.256           -0.00170470157832787 87.4800295273948 -34.2587725470854 177.552984355368 -34.2587725470857 177.552984355367 -0.00170525073907529 87.6224445514647 
! Gamma  !      0                440.43638742849  0                440.436405855898 
! Port Impedance  257.074974570885 0                257.077526694687 0                

27.265           -0.0017818012616648 87.0067988467379 -34.0662809998193 177.080574817622 -34.0662809998196 177.080574817622 -0.00178237217322984 87.1507610517308 
! Gamma  !      0                440.681006818228 0                440.681025235408 
! Port Impedance  257.017113437376 0                257.019664987123 0                

27.274           -0.00186261701516591 86.5303687573371 -33.8726777834515 176.60497698228  -33.8726777834519 176.60497698228  -0.00186320893773165 86.6759080684573 
! Gamma  !      0                440.925571189934 0                440.9255895969   
! Port Impedance  256.959348568012 0                256.96189954466  0                
