! Touchstone file from project Ka_PF
! Exported from HFSS 15.0.0
! Variables:
!  AA = 0.34in
!  BB = 0.145in
!  M01 = 0.1661in
!  M11 = 0.2126in
!  M12 = 0.1115in
!  M22 = 0.2362in
!  PL = 0.3in
!  RR = 0.035in
!  TT = 0.04in
!Data is not renormalized
# GHZ S DB
! Modal data exported
! Port[1] = 1:1
! Port[2] = 2:1
26.5             -0.000143489125814876 117.761427322819 -44.8097249535302 27.7293715301551 -44.8097249535283 27.7293715301709 -0.000143489126053069 117.697315737262 
! Gamma  !      -0               419.682062984135 -0               419.682053983037 
! Port Impedance  262.307395729971 0                262.307520679318 0                

26.509           -0.000147483028644285 117.41883140708  -44.6813434653709 27.3867344412028 -44.6813434653692 27.386734441217  -0.00014748395527746 117.354637023372 
! Gamma  !      0                419.931655136392 0                419.931646140644 
! Port Impedance  262.240522279612 0                262.240647164773 0                

26.518           -0.000151659901163184 117.075469578258 -44.5525219789676 27.0433312487885 -44.5525219789661 27.0433312488017 -0.000151661638284796 117.011192069352 
! Gamma  !      0                420.181183705476 0                420.18117471507  
! Port Impedance  262.173767949351 0                262.173892770464 0                

26.527           -0.000156022853851916 116.731331288106 -44.4232568898109 26.6991514069875 -44.4232568898097 26.6991514069991 -0.000156025292656743 116.666970328263 
! Gamma  !      0                420.430648804599 0                420.430639819527 
! Port Impedance  262.107132426225 0                262.10725718343  0                

26.536           -0.000160575290361192 116.386405806731 -44.2935445482189 26.3541841881996 -44.2935445482181 26.3541841882107 -0.000160578328915815 116.321961071634 
! Gamma  !      0                420.680050546673 0                420.680041566928 
! Port Impedance  262.040615398382 0                262.040740091817 0                

26.545           -0.000165320916645915 116.040682218565 -44.1633812585755 26.0084186791289 -44.1633812585748 26.008418679139  -0.000165324459664034 115.976153385437 
! Gamma  !      0                420.929389044317 0                420.929380069891 
! Port Impedance  261.97421655507  0                261.974341184871 0                

26.554           -0.000170263750572647 115.694149418224 -44.0327632785511 25.6618437766469 -44.0327632785506 25.6618437766559 -0.000170267709192316 115.629536165951 
! Gamma  !      0                421.178664409853 0                421.178655440739 
! Port Impedance  261.907935586632 0                261.908060152938 0                

26.563           -0.000175408132083653 115.346796106248 -43.9016868183085 25.314448183547  -43.9016868183082 25.314448183555  -0.000175412423636805 115.282098115511 
! Gamma  !      0                421.427876755309 0                421.427867791499 
! Port Impedance  261.841772184506 0                261.841896687453 0                

26.572           -0.000180758733877996 114.99861078474  -43.7701480396905 24.9662204041796 -43.7701480396903 24.9662204041868 -0.000180763281692755 114.933827738143 
! Gamma  !      0                421.67702619242  0                421.677017233906 
! Port Impedance  261.775726041217 0                261.775850480942 0                

26.581           -0.000186320572721567 114.649581752865 -43.6381430553907 24.6171487399694 -43.6381430553906 24.6171487399756 -0.000186325305886953 114.58471333508  
! Gamma  !      0                421.92611283263  0                421.926103879405 
! Port Impedance  261.709796850371 0                261.709921227009 0                

26.59            -0.000192099021328203 114.299697102241 -43.5056679281063 24.2672212848033 -43.5056679281063 24.2672212848086 -0.000192103874506088 114.234743000149 
! Gamma  !      0                422.175136787091 0                422.175127839146 
! Port Impedance  261.643984306653 0                261.64410862034  0                

26.599           -0.000198099820926657 113.94894471219  -43.3727186696727 23.9164259202953 -43.3727186696728 23.9164259203    -0.000198104734125148 113.883904615032 
! Gamma  !      0                422.424098166663 0                422.424089223993 
! Port Impedance  261.57828810582  0                261.578412356692 0                

26.608           -0.000204329094486445 113.59731224486  -43.239291240179 23.5647503109136 -43.2392912401792 23.5647503109174 -0.000204334012869913 113.532185844398 
! Gamma  !      0                422.672997081922 0                422.672988144517 
! Port Impedance  261.512707944698 0                261.512832132889 0                

26.617           -0.000210793360681664 113.244787140214 -43.1053815470646 23.212181898973  -43.105381547065 23.2121818989763 -0.000210798234367272 113.17957413089  
! Gamma  !      0                422.92183364315  0                422.921824711004 
! Port Impedance  261.447243521175 0                261.447367646819 0                

26.626           -0.000217499548614014 112.891356610869 -42.9709854441958 22.8587078994847 -42.9709854441962 22.8587078994872 -0.000217504332471139 112.826056689975 
! Gamma  !      0                423.170607960347 0                423.170599033452 
! Port Impedance  261.381894534199 0                261.38201859743  0                

26.635           -0.000224455013324942 112.537007636796 -42.8360987309219 22.5043152948584 -42.8360987309224 22.5043152948603 -0.00022445966679099 112.471620504653 
! Gamma  !      0                423.419320143223 0                423.419311221572 
! Port Impedance  261.31666068377  0                261.316784684722 0                

26.644           -0.000231667552188555 112.181726959859 -42.7007171511109 22.1489908294541 -42.7007171511114 22.1489908294554 -0.000231672039066453 112.11625232     
! Gamma  !      0                423.667970301207 0                423.667961384792 
! Port Impedance  261.25154167094  0                261.251665609746 0                

26.653           -0.000239145422159273 111.82550107821  -42.5648363921636 21.7927210039764 -42.5648363921641 21.7927210039773 -0.000239149710441969 111.759938637569 
! Gamma  !      0                423.916558543441 0                423.916549632255 
! Port Impedance  261.186537197803 0                261.186661074595 0                

26.662           -0.00024689735801411 111.46831624051  -42.4284520840058 21.4354920697077 -42.4284520840064 21.4354920697078 -0.000246901419692665 111.402665709625 
! Gamma  !      0                424.165084978785 0                424.16507607282  
! Port Impedance  261.121646967495 0                261.121770782405 0                

26.671           -0.000254932591536543 111.110158439989 -42.291559798058 21.0772900225707 -42.2915597980587 21.0772900225706 -0.000254936402426566 111.044419533207 
! Gamma  !      0                424.413549715817 0                424.413540815065 
! Port Impedance  261.056870684184 0                261.056994437345 0                

26.68            -0.000263260871816591 110.751013408331 -42.154155046182 20.7181005970222 -42.1541550461827 20.7181005970212 -0.00026326441137501 110.68518584402  
! Gamma  !      0                424.661952862833 0                424.661943967288 
! Port Impedance  260.992208053074 0                260.992331744616 0                

26.689           -0.000271892486620816 110.390866609377 -42.0162332796033 20.3579092597619 -42.0162332796041 20.3579092597606 -0.000271895737776166 110.324950110156 
! Gamma  !      0                424.910294527851 0                424.910285637505 
! Port Impedance  260.92765878039  0                260.927782410445 0                

26.698           -0.000280838284965402 110.029703232647 -41.87778988781  19.9967012032607 -41.8777898878107 19.9967012032592 -0.000280841233944248 109.963697525615 
! Gamma  !      0                425.158574818608 0                425.158565933453 
! Port Impedance  260.863222573382 0                260.86334614208  0                

26.707           -0.000290109700927056 109.667508186667 -41.738820197426 19.634461339094  -41.7388201974267 19.6344613390921 -0.000290112337092951 109.601413003646 
! Gamma  !      0                425.406793842564 0                425.406784962594 
! Port Impedance  260.798899140317 0                260.799022647788 0                

26.716           -0.000299718778778584 109.304266092096 -41.5993194710589 19.2711742910752 -41.5993194710597 19.2711742910728 -0.000299721094458497 109.238081169882 
! Gamma  !      0                425.654951706902 0                425.654942832108 
! Port Impedance  260.734688190473 0                260.734811636847 0                

26.725           -0.000309678199512843 108.939961274648 -41.4592829061213 18.9068243881858 -41.4592829061221 18.9068243881832 -0.000309680189846725 108.873686355276 
! Gamma  !      0                425.903048518527 0                425.903039648903 
! Port Impedance  260.670589434137 0                260.670712819544 0                

26.734           -0.000320001308847711 108.574577757802 -41.3187056336248 18.5413956572905 -41.3187056336256 18.5413956572874 -0.000320002971623603 108.508212588817 
! Gamma  !      0                426.151084384071 0                426.151075519609 
! Port Impedance  260.606602582602 0                260.60672590717  0                

26.743           -0.000330702146796047 108.208099255291 -41.1775827169466 18.1748718156315 -41.1775827169474 18.1748718156282 -0.000330703482291928 108.14164359003  
! Gamma  !      0                426.39905940989  0                426.399050550584 
! Port Impedance  260.542727348157 0                260.542850612014 0                

26.752           -0.000341795478873028 107.840509163356 -41.0359091505673 17.8072362630941 -41.0359091505681 17.8072362630909 -0.000341796489717963 107.773962761246 
! Gamma  !      0                426.646973702069 0                426.646964847911 
! Port Impedance  260.478963444088 0                260.479086647364 0                

26.761           -0.000353296829065377 107.471790552773 -40.8936798587792 17.4384720742353 -40.89367985878  17.4384720742318 -0.000353297520084258 107.405153179636 
! Gamma  !      0                426.894827366418 0                426.8948185174   
! Port Impedance  260.415310584672 0                260.415433727494 0                

26.77            -0.000365222514673434 107.101926160625 -40.7508896943646 17.0685619900662 -40.7508896943654 17.0685619900626 -0.000365222892736556 107.035197588998 
! Gamma  !      0                427.142620508477 0                427.142611664592 
! Port Impedance  260.351768485172 0                260.351891567667 0                

26.779           -0.000377589683072503 106.730898381824 -40.607533437243 16.6974884095801 -40.6075334372437 16.6974884095761 -0.000377589756962486 106.66407839129  
! Gamma  !      0                427.390353233516 0                427.390344394756 
! Port Impedance  260.288336861833 0                260.288459884128 0                

26.788           -0.000390416350591244 106.358689260367 -40.4636057930865 16.3252333810154 -40.4636057930872 16.3252333810112 -0.000390416130865141 106.291777637903 
! Gamma  !      0                427.638025646539 0                427.638016812891 
! Port Impedance  260.225015431877 0                260.225138394099 0                

26.797           -0.000403721443593076 105.985280480316 -40.3191013919021 15.9517785928457 -40.3191013919028 15.9517785928413 -0.00040372094243387 105.918277020651 
! Gamma  !      0                427.885637852249 0                427.885629023729 
! Port Impedance  260.1618039135   0                260.161926815775 0                

26.806           -0.000417524841872587 105.6106533565   -40.1740147865808 15.5771053644848 -40.1740147865815 15.5771053644802 -0.000417524072976374 105.543557862489 
! Gamma  !      0                428.133189955152 0                428.133181131732 
! Port Impedance  260.09870202587  0                260.098824868324 0                

26.815           -0.000431847424564797 105.234788824915 -40.028340451412 15.2011946366981 -40.0283404514127 15.2011946366937 -0.000431846402992279 105.167601107928 
! Gamma  !      0                428.38068205942  0                428.380673241098 
! Port Impedance  260.035709489115 0                260.035832271873 0                

26.824           -0.000446711118657103 104.85766743282  -39.882072780562 14.8240269617076 -39.8820727805626 14.8240269617029 -0.000446709860717876 104.790387313149 
! Gamma  !      0                428.628114268988 0                428.628105455756 
! Port Impedance  259.972826024328 0                259.972948747516 0                

26.833           -0.000462138950305661 104.479269328518 -39.735206086516 14.4455824929761 -39.7352060865167 14.4455824929716 -0.000462137473437681 104.411896635795 
! Gamma  !      0                428.875486687522 0                428.875477879373 
! Port Impedance  259.910051353557 0                259.910174017299 0                

26.842           -0.000478155099110683 104.099574250803 -39.5877345984832 14.0658409746695 -39.5877345984838 14.0658409746649 -0.000478153421756835 104.032108824443 
! Gamma  !      0                429.122799418422 0                429.122790615349 
! Port Impedance  259.847385199802 0                259.847507804223 0                

26.851           -0.00049478495556013 103.718561518069 -39.4396524607622 13.6847817307685 -39.4396524607628 13.6847817307637 -0.000494783097042872 103.651003207722 
! Gamma  !      0                429.370052564827 0                429.370043766824 
! Port Impedance  259.784827287014 0                259.784949832237 0                

26.86            -0.000512055181757779 103.336210017058 -39.2909537310668 13.3023836538296 -39.2909537310674 13.302383653825  -0.000512053162181751 103.268558683086 
! Gamma  !      0                429.617246229614 0                429.617237436673 
! Port Impedance  259.722377340086 0                259.722499826234 0                

26.869           -0.000529993775764758 102.952498191242 -39.1416323788122 12.9186251933768 -39.1416323788127 12.918625193372  -0.000529991615889498 102.884753705215 
! Gamma  !      0                429.864380515397 0                429.864371727511 
! Port Impedance  259.66003508485  0                259.660157512048 0                

26.878           -0.000548630139664794 102.567404028823 -38.9916822833575 12.5334843439068 -38.991682283358 12.5334843439022 -0.00054862786081602 102.499566274033 
! Gamma  !      0                430.111455524531 0                430.111446741693 
! Port Impedance  259.597800248078 0                259.597922616448 0                

26.887           -0.000567995151664003 102.180905050328 -38.8410972322057 12.1469386324998 -38.8410972322062 12.1469386324951 -0.000567992775608263 102.112973922321 
! Gamma  !      0                430.35847135911  0                430.358462581313 
! Port Impedance  259.535672557472 0                259.535794867136 0                

26.896           -0.000588121242429074 101.792978295793 -38.6898709191594 11.7589651060112 -38.6898709191599 11.7589651060063 -0.000588118791288887 101.724953702933 
! Gamma  !      0                430.60542812097  0                430.605419348207 
! Port Impedance  259.473651741661 0                259.473773992741 0                

26.905           -0.000609042475975723 101.403600311515 -38.5379969424305 11.3695403178348 -38.5379969424309 11.36954031783   -0.000609039972122547 101.335482175563 
! Gamma  !      0                430.85232591169  0                430.852317143954 
! Port Impedance  259.411737530199 0                259.411859722818 0                

26.914           -0.000630794635368232 101.012747136359 -38.3854688027025 10.9786403142194 -38.385468802703 10.9786403142148 -0.000630792101327966 100.944535393073 
! Gamma  !      0                431.099164832591 0                431.099156069875 
! Port Impedance  259.349929653562 0                259.350051787839 0                

26.923           -0.000653415313542041 100.620394287587 -38.2322799011455 10.5862406201157 -38.2322799011459 10.5862406201111 -0.000653412771907277 100.552088887361 
! Gamma  !      0                431.345944984738 0                431.345936227035 
! Port Impedance  259.288227843138 0                259.288349919197 0                

26.932           -0.000676944009592279 100.22651674622  -38.0784235373798 10.1923162245399 -38.0784235373802 10.1923162245352 -0.000676941482929731 100.15811765473  
! Gamma  !      0                431.592666468941 0                431.592657716245 
! Port Impedance  259.226631831233 0                259.226753849192 0                

26.941           -0.000701422230881781 99.8310889418717 -37.92389290739  9.79684156543336 -37.9238929073903 9.79684156542872 -0.000701419741642613 99.7625961407666 
! Gamma  !      0                431.839329385756 0                431.83932063806  
! Port Impedance  259.165141351054 0                259.165263311035 0                

26.95            -0.000726893601330884 99.4340847370789 -37.7686811013847 9.39979051399474 -37.768681101385 9.39979051399007 -0.00072689117177453 99.3654982246891 
! Gamma  !      0                432.085933835486 0                432.085925092782 
! Port Impedance  259.10375613672  0                259.103878038841 0                

26.959           -0.000753403976295721 99.0354774110668 -37.6127811016034 9.00113635846598 -37.6127811016037 9.00113635846148 -0.000753401628408894 98.9667972031462 
! Gamma  !      0                432.332479918179 0                432.332471180461 
! Port Impedance  259.042475923244 0                259.042597767626 0                

26.968           -0.00078100156450258 98.6352396429527 -37.4561857800665 8.60085178734888 -37.4561857800668 8.60085178734421 -0.000780999319914411 98.5664657734513 
! Gamma  !      0                432.578967733634 0                432.578959000895 
! Port Impedance  258.98130044654  0                258.981422233302 0                

26.977           -0.000809737057450026 98.233343494353  -37.2988878962688 8.19890887202599 -37.298887896269 8.19890887202154 -0.0008097349373665 98.1644760162219 
! Gamma  !      0                432.825397381399 0                432.825388653631 
! Port Impedance  258.920229443413 0                258.920351172673 0                

26.986           -0.00083966376681791 97.8297603913697 -37.1408800948128 7.79527904876533 -37.1408800948129 7.795279048761   -0.000839661791948584 97.7607993774002 
! Gamma  !      0                433.071768960769 0                433.071760237967 
! Port Impedance  258.859262651557 0                258.859384323434 0                

26.995           -0.000870837770404156 97.4244611059329 -36.9821549029824 7.38993310007723 -36.9821549029826 7.38993310007301 -0.000870835960887907 97.3554066496311 
! Gamma  !      0                433.318082570793 0                433.31807385295  
! Port Impedance  258.798399809551 0                258.798521424163 0                

27.004           -0.000903318067147943 97.0174157364692 -36.8227047282532 6.98284113540191 -36.8227047282534 6.98284113539765 -0.000903316442500906 96.9482679529672 
! Gamma  !      0                433.56433831027  0                433.564329597379 
! Port Impedance  258.737640656856 0                258.737762214322 0                

27.013           -0.000937166741888717 96.6085936878678 -36.6625218557387 6.57397257109181 -36.6625218557388 6.57397257108785 -0.000937165320929073 96.5393527148738 
! Gamma  !      0                433.810536277752 0                433.810527569809 
! Port Impedance  258.676984933812 0                258.677106434236 0                

27.022           -0.00097244914047009 96.1979636507144 -36.5015984455699 6.16329610966712 -36.5015984455701 6.16329610966324 -0.000972447941262136 96.1286296495041 
! Gamma  !      0                434.056676571545 0                434.056667868615 
! Port Impedance  258.616432381629 0                258.616553825149 0                

27.031           -0.00100923405593962 95.7854935797615 -36.3399265302075 5.75077971830401 -36.3399265302077 5.75077971829992 -0.00100923309574749 95.7160667362109 
! Gamma  !      0                434.302759289707 0                434.302750591623 
! Port Impedance  258.555982742391 0                258.556104129116 0                

27.04            -0.00104759392660146 95.3711506716003 -36.1774980116831 5.33639060652758 -36.1774980116832 5.33639060652353 -0.00104759322182067 95.3016311972631 
! Gamma  !      0                434.548784530054 0                434.548775836897 
! Port Impedance  258.495635759047 0                258.495757089092 0                

27.049           -0.00108760504668777 94.9549013414999 -36.0143046587684 4.92009520307391 -36.0143046587685 4.92009520307002 -0.00108760461280662 94.8852894747315 
! Gamma  !      0                434.794752390155 0                434.794743701916 
! Port Impedance  258.435391175408 0                258.435512448889 0                

27.058           -0.00112934779059621 94.5367111993764 -35.8503381040705 4.50185913188183 -35.8503381040706 4.50185913187798 -0.00112934764214667 94.4670072065064 
! Gamma  !      0                435.040662967336 0                435.040654284009 
! Port Impedance  258.375248736146 0                258.375369953179 0                

27.067           -0.00117290685159993 94.1165450248547 -35.6855898410505 4.08164718717839 -35.6855898410505 4.08164718717471 -0.00117290700210548 94.0467492014104 
! Gamma  !      0                435.286516358683 0                435.286507680261 
! Port Impedance  258.315208186787 0                258.315329347487 0                

27.076           -0.0012183714960279 93.6943667413793 -35.5200512209629 3.65942330761535 -35.520051220963 3.65942330761169 -0.00121837195797373 93.6244794133617 
! Gamma  !      0                435.532312661037 0                435.532303987513 
! Port Impedance  258.255269273709 0                258.255390378191 0                

27.085           -0.00126583583404844 93.2701393893339 -35.3537134497155 3.23515054941515 -35.3537134497154 3.23515054941159 -0.00126583661883895 93.2001609145507 
! Gamma  !      0                435.778051971001 0                435.778043302367 
! Port Impedance  258.195431744139 0                258.195552792517 0                

27.094           -0.0013153991082136 92.8438250981234 -35.1865675846441 2.80879105848087 -35.1865675846441 2.80879105847754 -0.00131540022613003 92.7737558675791 
! Gamma  !      0                436.023734384934 0                436.023725721185 
! Port Impedance  258.135695346148 0                258.135816338537 0                

27.103           -0.00136716600099828 92.41538505717   -35.0186045312037 2.38030604142183 -35.0186045312038 2.38030604141837 -0.00136716746117842 92.3452254965181 
! Gamma  !      0                436.26935999896  0                436.269351340089 
! Port Impedance  258.076059828649 0                258.076180765163 0                

27.112           -0.00142124696276089 91.984779485775  -34.8498150395701 1.94965573544508 -34.8498150395701 1.94965573544172 -0.00142124877316147 91.9145300568338 
! Gamma  !      0                436.514928908961 0                436.514920254962 
! Port Impedance  258.016524941391 0                258.016645822143 0                

27.121           -0.00147775856153771 91.5519676017922 -34.6801897011513 1.51679937706304 -34.6801897011513 1.51679937705975 -0.00147776072891128 91.4816288041284 
! Gamma  !      0                436.760441210584 0                436.760432561449 
! Port Impedance  257.957090434958 0                257.957211260062 0                

27.13            -0.00153682385627753 91.1169075890577 -34.5097189450061 1.08169516955509 -34.5097189450061 1.08169516955189 -0.00153682638615124 91.0464799616395 
! Gamma  !      0                437.005896999237 0                437.005888354959 
! Port Impedance  257.897756060765 0                257.897876830333 0                

27.139           -0.00159857279522982 90.6795565635176 -34.338393034167 0.644300249132421 -34.338393034167 0.644300249129249 -0.00159857569187741 90.609040686443  
! Gamma  !      0                437.251296370092 0                437.251287730666 
! Port Impedance  257.838521571053 0                257.838642285199 0                

27.148           -0.00166314264132099 90.2398705379921 -34.1662020618644 0.204570649738836 -34.1662020618644 0.204570649735709 -0.00166314590775224 90.1692670342935 
! Gamma  !      0                437.496639418086 0                437.496630783505 
! Port Impedance  257.779386718887 0                257.779507377722 0                

27.157           -0.00173067842650105 89.7978043855099 -33.9931359476498 -0.237538733575036 -33.9931359476498 -0.237538733578064 -0.00173068206444919 89.7271139230408 
! Gamma  !      0                437.741926237923 0                437.741917608181 
! Port Impedance  257.720351258152 0                257.720471861788 0                

27.166           -0.00180133343723341 89.3533118011444 -33.8191844334153 -0.682074182774142 -33.8191844334152 -0.682074182776961 -0.00180133744713775 89.2825350945514 
! Gamma  !      0                437.987156924071 0                437.98714829916  
! Port Impedance  257.661414943549 0                257.661535492098 0                

27.175           -0.00187526973342758 88.9063452622803 -33.6443370793059 -1.12908319652883 -33.6443370793058 -1.12908319653176 -0.00187527411442487 88.8354830750644 
! Gamma  !      0                438.232331570765 0                438.232322950679 
! Port Impedance  257.602577530594 0                257.602698024167 0                

27.184           -0.00195265870332186 88.4568559872318 -33.4685832595233 -1.57861453155091 -33.4685832595232 -1.57861453155382 -0.0019526634532491 88.3859091339042 
! Gamma  !      0                438.477450272009 0                438.477441656742 
! Port Impedance  257.54383877561  0                257.543959214319 0                

27.193           -0.00203368165705594 88.0047938921339 -33.2919121580162 -2.03071824565401 -33.2919121580161 -2.03071824565675 -0.00203368677243789 87.9337632404704 
! Gamma  !      0                438.722513121574 0                438.72250451112  
! Port Impedance  257.485198435729 0                257.485318819684 0                

27.202           -0.00211853046183144 87.5501075460187 -33.1143127640554 -2.48544574262583 -33.1143127640553 -2.48544574262866 -0.00211853593788345 87.4789940194179 
! Gamma  !      0                438.967520213003 0                438.967511607355 
! Port Impedance  257.426656268885 0                257.426776598195 0                

27.211           -0.00220740822187041 87.0927441239878 -32.9357738676914 -2.94284981900352 -32.9357738676913 -2.94284981900619 -0.00220741405251096 87.021548703939  
! Gamma  !      0                439.212471639606 0                439.212463038757 
! Port Impedance  257.368212033811 0                257.368332308587 0                

27.22            -0.00230053000660218 86.6326493583858 -32.7562840550894 -3.40298471284253 -32.7562840550893 -3.4029847128451 -0.00230053618444706 86.5613730870506 
! Gamma  !      0                439.457367494464 0                439.457358898408 
! Port Impedance  257.309865490037 0                257.309985710389 0                

27.229           -0.00239812363078283 86.169767487871  -32.5758317037411 -3.86590615458687 -32.575831703741 -3.86590615458944 -0.00239813014716053 86.0984114707867 
! Gamma  !      0                439.702207870432 0                439.702199279162 
! Port Impedance  257.251616397886 0                257.251736563923 0                

27.238           -0.00250043049062396 85.7040412042791 -32.3944049775481 -4.33167142014376 -32.3944049775481 -4.33167142014628 -0.00250043733558915 85.6326066131877 
! Gamma  !      0                439.946992860135 0                439.946984273645 
! Port Impedance  257.19346451847  0                257.193584630301 0                

27.247           -0.00260770646028311 85.2354115971662 -32.2119918217765 -4.80033938627344 -32.2119918217764 -4.80033938627588 -0.00260771362263397 85.163899672978  
! Gamma  !      0                440.191722555971 0                440.191713974256 
! Port Impedance  257.135409613688 0                257.135529671422 0                

27.256           -0.0027202228534911 84.7638180959082 -32.028579957876 -5.27197058842089 -32.0285799578759 -5.27197058842328 -0.00272023032077213 84.6922301518052 
! Gamma  !      0                440.436397050115 0                440.436388473166 
! Port Impedance  257.077451446223 0                257.077571449968 0                

27.265           -0.00283826745542728 84.2891984092338 -31.8441568781651 -5.74662728110969 -31.844156878165 -5.74662728111214 -0.0028382752139727 84.2175358339213 
! Gamma  !      0                440.681016434511 0                440.681007862324 
! Port Impedance  257.019589779536 0                257.0197097294   0                

27.274           -0.00296214563051456 83.8114884620529 -31.6587098403752 -6.22437350103627 -31.6587098403751 -6.22437350103861 -0.0029621536654627 83.7397527231663 
! Gamma  !      0                440.925580800884 0                440.925572233452 
! Port Impedance  256.961824377866 0                256.961944273956 0                

27.283           -0.00309218151216202 83.3306223294392 -31.4722258620541 -6.70527513300559 -31.4722258620541 -6.70527513300794 -0.00309218980747549 83.2588149771152 
! Gamma  !      0                441.170090240731 0                441.170081678047 