! Touchstone file from project Ka_PF
! Exported from HFSS 15.0.0
! Variables:
!  AA = 0.34in
!  BB = 0.145in
!  M01 = 0.166in
!  M11 = 0.2126in
!  M12 = 0.1117in
!  M22 = 0.2362in
!  PL = 0.3in
!  RR = 0.035in
!  TT = 0.04in
!Data is not renormalized
# GHZ S DB
! Modal data exported
! Port[1] = 1:1
! Port[2] = 2:1
26.5             -0.000146510150640839 117.926637635252 -44.7192392156167 -152.01172967003 -44.7192392156176 -152.011729670015 -0.000146510150883853 118.049903024828 
! Gamma  !      -0               419.682041892289 -0               419.68206317171  
! Port Impedance  262.306912805849 0                262.303263880503 0                

26.509           -0.000150600379541878 117.584392482943 -44.5906356332232 -152.353813104774 -44.5906356332242 -152.353813104762 -0.000150599460026195 117.707981586004 
! Gamma  !      0                419.931634057083 0                419.931655323856 
! Port Impedance  262.240039476768 0                262.236391418017 0                

26.518           -0.000154877385820462 117.241382187521 -44.4615897226688 -152.696660376919 -44.4615897226698 -152.696660376908 -0.000154875662193245 117.365297560067 
! Gamma  !      0                420.181162638685 0                420.181183892829 
! Port Impedance  262.17328526757  0                262.16963807392  0                

26.527           -0.000159344417256181 116.89759618333  -44.3320978466291 -153.040282037043 -44.3320978466302 -153.040282037033 -0.000159341998026629 117.021840417413 
! Gamma  !      0                420.430627750308 0                420.43064899184  
! Port Impedance  262.106649865295 0                262.103003535253 0                

26.536           -0.000164005021389417 116.553023722146 -44.2021563219574 -153.38468881778 -44.2021563219585 -153.384688817772 -0.000164002008158277 116.67759944654  
! Gamma  !      0                420.680029504864 0                420.680050733803 
! Port Impedance  262.040132958088 0                262.036487490167 0                

26.545           -0.000168863054979278 116.207653869103 -44.0717614189052 -153.729891637889 -44.0717614189062 -153.729891637883 -0.000168859542665463 116.332563750002 
! Gamma  !      0                420.929368014972 0                420.929389231336 
! Port Impedance  261.973734235199 0                261.970089627915 0                

26.554           -0.000173922693957354 115.861475498516 -43.9409093603261 -154.075901606428 -43.9409093603272 -154.075901606422 -0.000173918771034209 115.986722240243 
! Gamma  !      0                421.178643392954 0                421.178664596761 
! Port Impedance  261.907453386972 0                261.903809638846 0                

26.563           -0.000179188443949637 115.514477289584 -43.8095963208629 -154.422730027045 -43.809596320864 -154.422730027041 -0.000179184192662872 115.640063635315 
! Gamma  !      0                421.427855750839 0                421.427876942107 
! Port Impedance  261.841290104845 0                261.8376472144   0                

26.572           -0.000184665151355035 115.166647721981 -43.6778184261166 -154.770388402392 -43.6778184261177 -154.770388402389 -0.000184660647933921 115.292576454488 
! Gamma  !      0                421.677005200361 0                421.677026379108 
! Port Impedance  261.775244081343 0                261.771602047107 0                

26.581           -0.000190358015029698 114.817975071315 -43.5455717517983 -155.118888438652 -43.5455717517994 -155.11888843865 -0.000190353329911747 114.944249013724 
! Gamma  !      0                421.926091852963 0                421.926113019207 
! Port Impedance  261.709315010074 0                261.705673830578 0                

26.59            -0.000196272598617637 114.468447404469 -43.4128523228617 -155.468242050202 -43.4128523228627 -155.468242050201 -0.000196267796660763 114.595069421039 
! Gamma  !      0                422.175115819799 0                422.175136973558 
! Port Impedance  261.643502585723 0                261.639862259501 0                

26.599           -0.000202414843548915 114.118052574812 -43.2796561126175 -155.818461364396 -43.2796561126186 -155.818461364395 -0.000202409984238753 114.245025571728 
! Gamma  !      0                422.424077211729 0                422.424098353021 
! Port Impedance  261.577806504048 0                261.574167029639 0                

26.608           -0.000208791082741061 113.766778217263 -43.1459790418281 -156.169558726492 -43.145979041829 -156.169558726492 -0.000208786220396379 113.894105143451 
! Gamma  !      0                422.672976139327 0                422.672997268169 
! Port Impedance  261.512226461873 0                261.50858783782  0                

26.617           -0.000215408055062598 113.414611743235 -43.0118169777822 -156.521546704712 -43.0118169777832 -156.521546704713 -0.000215403239039723 113.542295591192 
! Gamma  !      0                422.921812712877 0                422.921833829288 
! Port Impedance  261.44676215709  0                261.443124381938 0                

26.626           -0.000222272920574095 113.061540335413 -42.8771657333495 -156.874438095449 -42.8771657333505 -156.874438095451 -0.000222268195468463 113.189584142063 
! Gamma  !      0                423.170587042378 0                423.170608146375 
! Port Impedance  261.381413288645 0                261.377776360944 0                

26.635           -0.000229393276601772 112.707550942403 -42.7420210660141 -157.228245928621 -42.7420210660151 -157.228245928623 -0.000229388682439822 112.835957789967 
! Gamma  !      0                423.419299237542 0                423.419320329143 
! Port Impedance  261.316179556541 0                261.312543474843 0                

26.644           -0.00023677717470055 112.352630273214 -42.6063786768859 -157.582983473179 -42.6063786768868 -157.582983473182 -0.00023677274713452 112.481403290104 
! Gamma  !      0                423.667949407795 0                423.667970487018 
! Port Impedance  261.251060661828 0                261.247425424691 0                

26.653           -0.000244433138541316 111.996764791583 -42.4702342096911 -157.938664242775 -42.470234209692 -157.938664242778 -0.000244428909039212 112.125907153317 
! Gamma  !      0                423.916537662281 0                423.916558729142 
! Port Impedance  261.186056306601 0                261.182421912585 0                

26.662           -0.000252370182771603 111.639940710143 -42.3335832497393 -158.295302001591 -42.3335832497402 -158.295302001594 -0.000252366178805237 111.769455640281 
! Gamma  !      0                424.16506410986  0                424.165085164377 
! Port Impedance  261.121166193997 0                261.117532641666 0                

26.671           -0.000260597832927832 111.282143984406 -42.196421322867 -158.652910770344 -42.1964213228679 -158.652910770347 -0.000260594078149295 111.412034755512 
! Gamma  !      0                424.413528859109 0                424.4135499013   
! Port Impedance  261.056390028186 0                261.052757316108 0                

26.68            -0.000269126146426168 110.923360306587 -42.0587438943582 -159.01150483246 -42.0587438943591 -159.011504832464 -0.000269122660851048 111.053630241209 
! Gamma  !      0                424.661932018325 0                424.661953048208 
! Port Impedance  260.99172751437  0                260.988095641115 0                

26.689           -0.000277965734716881 110.56357509923  -41.9205463678392 -159.371098740439 -41.92054636784  -159.371098740443 -0.000277962534908446 110.694227570908 
! Gamma  !      0                424.910273695525 0                424.910294713117 
! Port Impedance  260.927178358776 0                260.92354732292  0                

26.698           -0.000287127786672663 110.202773508656 -41.7818240841493 -159.731707322396 -41.7818240841501 -159.7317073224  -0.000287124885906757 110.333811942953 
! Gamma  !      0                425.158553998448 0                425.158575003766 
! Port Impedance  260.862742268655 0                260.859112068775 0                

26.707           -0.000296624093257241 109.840940398207 -41.6425723201853 -160.09334568881 -41.642572320186 -160.093345688814 -0.000296621501690074 109.972368273769 
! Gamma  !      0                425.406773034552 0                425.406794027614 
! Port Impedance  260.798418952273 0                260.794789586951 0                

26.716           -0.000306467073564988 109.478060341295 -41.5027862877188 -160.456029239467 -41.5027862877196 -160.456029239472 -0.000306464798410569 109.60988119093  
! Gamma  !      0                425.65493091102  0                425.654951891844 
! Port Impedance  260.734208118909 0                260.73057958673  0                

26.725           -0.000316669802311634 109.11411761424  -41.3624611321874 -160.819773670616 -41.3624611321881 -160.81977367062 -0.000316667847997987 109.246335026031 
! Gamma  !      0                425.903027734759 0                425.903048703361 
! Port Impedance  260.670109478851 0                260.666481778405 0                

26.734           -0.000327246038853294 108.74909618888  -41.2215919314563 -161.184594982337 -41.2215919314569 -161.184594982342 -0.000327244407183499 108.881713807322 
! Gamma  !      0                426.1510636124   0                426.151084568798 
! Port Impedance  260.606122743392 0                260.602495873271 0                

26.743           -0.000338210257841894 108.382979724976 -41.0801736945525 -161.550509486143 -41.0801736945531 -161.550509486147 -0.000338208948148373 108.516001252144 
! Gamma  !      0                426.399038650299 0                426.39905959451  
! Port Impedance  260.542247624822 0                260.538621583621 0                

26.752           -0.000349577681563362 108.015751562363 -40.9382013603683 -161.917533812801 -40.9382013603689 -161.917533812806 -0.000349576690869884 108.149180759108 
! Gamma  !      0                426.646952954541 0                426.646973886581 
! Port Impedance  260.478483836428 0                260.474858622747 0                

26.761           -0.000361364314135152 107.647394712875 -40.7956697963354 -162.285684920409 -40.7956697963359 -162.285684920414 -0.000361363637301476 107.781235400048 
! Gamma  !      0                426.894806630935 0                426.894827550823 
! Port Impedance  260.414831092486 0                260.411206704928 0                

26.77            -0.000373586977595988 107.277891852007 -40.6525737970664 -162.654980102713 -40.6525737970669 -162.654980102718 -0.000373586607472151 107.412147911724 
! Gamma  !      0                427.142599785023 0                427.142620692774 
! Port Impedance  260.35128910826  0                260.347665545431 0                

26.779           -0.000386263350065366 106.907225310333 -40.5089080829654 -163.025436997684 -40.5089080829658 -163.025436997689 -0.000386263277627652 107.041900687256 
! Gamma  !      0                427.390332522072 0                427.390353417705 
! Port Impedance  260.287857599996 0                260.284234860505 0                

26.788           -0.000399412006044315 106.535377064632 -40.3646672988044 -163.397073596372 -40.3646672988048 -163.397073596376 -0.000399412220535072 106.670475767303 
! Gamma  !      0                427.638004947082 0                427.638025830615 
! Port Impedance  260.224536284917 0                260.220914367377 0                

26.797           -0.000413052459012782 106.162328728761 -40.2198460122669 -163.769908252026 -40.2198460122673 -163.76990825203 -0.000413052948092785 106.297854830951 
! Gamma  !      0                427.885617164785 0                427.885638036234 
! Port Impedance  260.161324881219 0                260.157703784248 0                

26.806           -0.000427205206463635 105.788061544212 -40.0744387124554 -164.143959689517 -40.0744387124558 -164.143959689521 -0.000427205956331659 105.92401918632  
! Gamma  !      0                428.133169279641 0                428.133190139026 
! Port Impedance  260.09822310807  0                260.094602830287 0                

26.815           -0.000441891777524839 105.412556370389 -39.9284398083638 -164.51924701505 -39.9284398083642 -164.519247015054 -0.000441892773057479 105.548949760872 
! Gamma  !      0                428.380661395435 0                428.380682243188 
! Port Impedance  260.035230685599 0                260.031611225624 0                

26.824           -0.000457134783294377 105.03579367456  -39.7818436273123 -164.895789726194 -39.7818436273126 -164.895789726199 -0.000457136008174299 105.172627091399 
! Gamma  !      0                428.62809361737  0                428.628114452649 
! Port Impedance  259.972347334899 0                259.968728691363 0                

26.833           -0.000472957970104124 104.657753521492 -39.6346444133447 -165.273607722238 -39.634644413345 -165.273607722242 -0.000472959406939637 104.795031313699 
! Gamma  !      0                428.875466047809 0                428.875486871076 
! Port Impedance  259.909572778019 0                259.905954949551 0                

26.842           -0.000489386275845971 104.278415562742 -39.4868363255861 -165.652721314872 -39.4868363255864 -165.652721314875 -0.000489387906298315 104.416142151909 
! Gamma  !      0                429.122778790603 0                429.122799601871 
! Port Impedance  259.84690673796  0                259.843289723194 0                

26.851           -0.000506445889594765 103.897759025605 -39.3384134365612 -166.033151239229 -39.3384134365614 -166.033151239233 -0.000506447694497677 104.035938907489 
! Gamma  !      0                429.370031948886 0                429.37005274817  
! Port Impedance  259.784348938672 0                259.780732736244 0                

26.86            -0.00052416431467779 103.515762701696 -39.1893697304703 -166.414918665285 -39.1893697304704 -166.414918665289 -0.000524166274149368 103.654400447854 
! Gamma  !      0                429.617225625534 0                429.617246412852 
! Port Impedance  259.721899105049 0                259.718283713599 0                

26.869           -0.000542570435476544 103.132404935153 -39.0396991014233 -166.798045209635 -39.0396991014235 -166.798045209638 -0.000542572529032061 103.271505194615 
! Gamma  !      0                429.864359923162 0                429.864380698529 
! Port Impedance  259.659556962925 0                259.655942381097 0                

26.878           -0.000561694588121176 102.747663610451 -38.8893953516301 -167.182552947658 -38.8893953516302 -167.182552947661 -0.000561696794790728 102.887231111443 
! Gamma  !      0                430.111434944125 0                430.111455707558 
! Port Impedance  259.59732223907  0                259.593708465511 0                

26.887           -0.000581568635385587 102.361516139805 -38.7384521895454 -167.568464426097 -38.7384521895455 -167.5684644261  -0.000581570933803767 102.501555691514 
! Gamma  !      0                430.358450790516 0                430.358471542032 
! Port Impedance  259.535194661188 0                259.531581694548 0                

26.896           -0.000602226045998616 101.973939450151 -38.5868632279675 -167.955802676056 -38.5868632279676 -167.955802676059 -0.000602228414526979 102.114455944544 
! Gamma  !      0                430.605407564173 0                430.605428303787 
! Port Impedance  259.473173957909 0                259.46956179684  0                

26.905           -0.000623701978699606 101.584909969682 -38.4346219820895 -168.34459122644 -38.4346219820896 -168.344591226442 -0.000623704395516347 101.725908383374 
! Gamma  !      0                430.852305366672 0                430.852326094402 
! Port Impedance  259.411259858787 0                259.407648501947 0                

26.914           -0.000646033371311754 101.194403613933 -38.281721867501 -168.734854117848 -38.281721867501 -168.73485411785 -0.000646035814500418 101.335889010102 
! Gamma  !      0                431.099144299337 0                431.099165015198 
! Port Impedance  259.349452094297 0                259.345841540346 0                

26.923           -0.000669259035142332 100.802395771378 -38.1281561981397 -169.126615916952 -38.1281561981397 -169.126615916954 -0.00066926148280271 100.944373301743 
! Gamma  !      0                431.345924463231 0                431.345945167241 
! Port Impedance  259.28775039583  0                259.284140643431 0                

26.932           -0.000693419755120222 100.408861288539 -37.9739181841911 -169.519901731364 -37.9739181841911 -169.519901731366 -0.000693422185444522 100.551336195385 
! Gamma  !      0                431.592645959165 0                431.59266665134  
! Port Impedance  259.22615449569  0                259.222545543509 0                

26.941           -0.000718558395955871 100.013774454572 -37.8190009299343 -169.914737225022 -37.8190009299343 -169.914737225024 -0.000718560787321296 100.156752072834 
! Gamma  !      0                431.839308887695 0                431.839329568051 
! Port Impedance  259.164664127087 0                259.161055973795 0                

26.95            -0.000744720014790173 99.6171089853171 -37.6633974315327 -170.311148634118 -37.6633974315326 -170.31114863412 -0.000744722345851483 99.7605947447291 
! Gamma  !      0                432.085913349123 0                432.085934017676 
! Port Impedance  259.103279024138 0                259.099671668407 0                

26.959           -0.000771951980712028 99.2188380067841 -37.5071005747684 -170.709162783576 -37.5071005747683 -170.709162783578 -0.000771954230462291 99.3628374340831 
! Gamma  !      0                432.332459443499 0                432.332480100265 
! Port Impedance  259.041998921859 0                259.038392362365 0                

26.968           -0.000800304101631501 98.8189340380577 -37.350103132718 -171.108807104125 -37.3501031327179 -171.108807104126 -0.000800306249496594 98.9634527592536 
! Gamma  !      0                432.578947270621 0                432.578967915617 
! Port Impedance  258.980823556162 0                258.977217791585 0                

26.977           -0.000829828758967602 98.4173689735901 -37.1923977633687 -171.510109649973 -37.1923977633685 -171.510109649974 -0.000829830784873707 98.5624127163013 
! Gamma  !      0                432.825376930036 0                432.825397563277 
! Port Impedance  258.919752663854 0                258.916147692876 0                

26.986           -0.000860581050686014 98.0141140648585 -37.0339770071712 -171.91309911712 -37.033977007171 -171.913099117121 -0.000860582935130973 98.1596886607153 
! Gamma  !      0                433.071748521041 0                433.071769142544 
! Port Impedance  258.858785982628 0                258.855181803936 0                

26.995           -0.000892618943266561 97.6091399013617 -36.874833284531 -172.317804862327 -36.8748332845309 -172.317804862327 -0.000892620667390269 97.75525128848   
! Gamma  !      0                433.318062142683 0                433.318082752465 
! Port Impedance  258.797923251066 0                258.794319863348 0                

27.004           -0.000926003433153367 97.2024163909246 -36.7149588932325 -172.724256922776 -36.7149588932323 -172.724256922776 -0.000926004978795625 97.3490706164523 
! Gamma  !      0                433.564317893763 0                433.564338491839 
! Port Impedance  258.737164208628 0                258.733561610576 0                

27.013           -0.000960798718376741 96.7939127392821 -36.554346005796 -173.132486036455 -36.5543460057958 -173.132486036456 -0.000960800068147652 96.9411159620217 
! Gamma  !      0                433.810515872832 0                433.810536459218 
! Port Impedance  258.676508595653 0                258.672906785963 0                

27.022           -0.000997072381025414 96.3835974289117 -36.3929866667654 -173.542523663287 -36.3929866667652 -173.542523663287 -0.00099707351835745 96.5313559220196 
! Gamma  !      0                434.056656178196 0                434.056676752907 
! Port Impedance  258.615956153354 0                258.612355130724 0                

27.031           -0.00103489558130675 95.9714381970798 -36.2308727899243 -173.954402007043 -36.2308727899241 -173.954402007043 -0.00103489649051261 96.1197583508477 
! Gamma  !      0                434.302738907914 0                434.302759470967 
! Port Impedance  258.555506623814 0                258.551906386946 0                

27.04            -0.00107434326399255 95.5574020130696 -36.0679961554386 -174.368154038078 -36.0679961554384 -174.368154038078 -0.00107434393031048 95.7062903377894 
! Gamma  !      0                434.5487641598   0                434.548784711211 
! Port Impedance  258.495159749983 0                258.491560297581 0                

27.049           -0.00111549437810616 95.1414550545519 -35.9043484069224 -174.783813516916 -35.9043484069221 -174.783813516917 -0.00111549478776071 95.2909181834671 
! Gamma  !      0                434.794732031424 0                434.794752571209 
! Port Impedance  258.434915275673 0                258.431316606446 0                

27.058           -0.001158432110812 94.7235626830616 -35.7399210484265 -175.201415018735 -35.7399210484263 -175.201415018735 -0.00115843225104199 94.873607375409  
! Gamma  !      0                435.040642620114 0                435.040663148288 
! Port Impedance  258.374772945555 0                258.371175058213 0                

27.067           -0.00120324413642933 94.3036894185404 -35.574705441347 -175.620993958773 -35.5747054413468 -175.620993958773 -0.00120324399554182 94.4543225626853 
! Gamma  !      0                435.286496022953 0                435.286516539533 
! Port Impedance  258.314732505156 0                258.311135398413 0                

27.076           -0.00125002288169881 93.8817989129011 -35.4086928012494 -176.042586618724 -35.4086928012491 -176.042586618724 -0.00125002244910869 94.0330275295689 
! Gamma  !      0                435.532292336783 0                435.532312841785 
! Port Impedance  258.254793700855 0                258.251197373429 0                

27.085           -0.00129886580842978 93.4578539225718 -35.2418741946092 -176.466230174141 -35.241874194609 -176.466230174141 -0.00129886507468481 93.6096851681802 
! Gamma  !      0                435.778031658208 0                435.778052151646 
! Port Impedance  258.194956279879 0                258.19136073049  0                

27.094           -0.0013498757147493 93.0318162799706 -35.0742405354642 -176.891962722914 -35.074240535464 -176.891962722914 -0.00134987467156482 93.184257450066  
! Gamma  !      0                436.023714083587 0                436.023734565478 
! Port Impedance  258.1352199903   0                258.131625217671 0                

27.103           -0.00140316105632846 92.6036468638624 -34.905782581976 -177.31982331486 -34.9057825819758 -177.31982331486 -0.00140315969662021 92.7567053966642 
! Gamma  !      0                436.269339709042 0                436.269360179402 
! Port Impedance  258.07558458103  0                258.071990583888 0                

27.112           -0.00145883628896145 92.1733055685463 -34.7364909328991 -177.749851982479 -34.7364909328989 -177.749851982479 -0.00145883460686872 92.3269890486035 
! Gamma  !      0                436.514908630458 0                436.514929089302 
! Port Impedance  258.01604980182  0                258.012456578895 0                

27.121           -0.00151702223412089 91.7407512718177 -34.5663560239545 -178.18208977294 -34.5663560239542 -178.18208977294 -0.00151702022502288 91.8950674337816 
! Gamma  !      0                436.76042094348  0                436.760441390823 
! Port Impedance  257.956615403254 0                257.953022953277 0                

27.13            -0.00157784646908205 91.3059418016468 -34.3953681241041 -178.616578781341 -34.3953681241038 -178.61657878134 -0.00157784412962105 91.4608985341651 
! Gamma  !      0                437.005876743516 0                437.005897179374 
! Port Impedance  257.897281136748 0                257.893689458455 0                

27.139           -0.00164144374347919 90.8688339015154 -34.223517331725 -179.05336218531 -34.2235173317247 -179.053362185309 -0.00164144107157411 91.0244392512513 
! Gamma  !      0                437.251276125739 0                437.251296550128 
! Port Impedance  257.838046754542 0                257.834455846672 0                

27.148           -0.00170795642422286 90.4293831943437 -34.0507935706787 -179.492484281017 -34.0507935706784 -179.492484281017 -0.00170795341907209 90.5856453701257 
! Gamma  !      0                437.496619185086 0                437.496639598021 
! Port Impedance  257.778912009702 0                257.775321870997 0                

27.157           -0.00177753497083403 89.9875441449415 -33.8771865862738 -179.933990520656 -33.8771865862736 -179.933990520655 -0.00177753163294152 90.1444715220492 
! Gamma  !      0                437.741906016261 0                437.741926417756 
! Port Impedance  257.719876656112 0                257.716287285317 0                

27.166           -0.00185033844356665 89.5432700209125 -33.7026859411183 179.62207244853  -33.7026859411181 179.62207244853  -0.00185033477472361 89.7008711455018 
! Gamma  !      0                437.98713671373  0                437.987157103801 
! Port Impedance  257.660940448471 0                257.657351844339 0                

27.175           -0.00192653504665275 89.0965128519334 -33.5272810108588 179.175656743598 -33.5272810108586 179.175656743598 -0.00192653104994823 89.2547964456102 
! Gamma  !      0                438.232311371731 0                438.232331750386 
! Port Impedance  257.602103142324 0                257.598515303581 0                

27.184           -0.00200630270940849 88.6472233873314 -33.3509609798032 178.726713203558 -33.350960979803 178.726713203559 -0.00200629838923042 88.8061983518754 
! Gamma  !      0                438.477430084267 0                438.477450451563 
! Port Impedance  257.543364493947 0                257.53977741937  0                

27.193           -0.00208982970805437 88.1953510518724 -33.1737148364247 178.275191345241 -33.1737148364244 178.275191345241 -0.00208982507007027 88.3550264741211 
! Gamma  !      0                438.722492945109 0                438.722513301014 
! Port Impedance  257.484724260499 0                257.48113794884  0                

27.202           -0.0021773153313162 87.7408438996719 -32.9955313687414 177.821039317287 -32.9955313687412 177.821039317287 -0.00217731038247899 87.9012290565683 
! Gamma  !      0                438.967500047799 0                438.96752039234  
! Port Impedance  257.426182199912 0                257.422596649929 0                

27.211           -0.00226897059322786 87.2836485661344 -32.8163991595721 177.364203852172 -32.8163991595719 177.364203852173 -0.00226896534174602 87.4447529299464 
! Gamma  !      0                439.212451485648 0                439.212471818842 
! Port Impedance  257.367738070918 0                257.364153281374 0                

27.22            -0.00236501899674686 86.8237102178203 -32.6363065816609 176.904630216166 -32.6363065816607 176.904630216167 -0.00236501345207092 86.9855434615391 
! Gamma  !      0                439.457347351738 0                439.4573676736   
! Port Impedance  257.309391633048 0                257.305807602709 0                

27.229           -0.00246569735213005 86.3609725001353 -32.45524179267  176.442262157106 -32.4552417926699 176.442262157107 -0.00246569152493626 86.5235445030586 
! Gamma  !      0                439.702187738921 0                439.702208049467 
! Port Impedance  257.251142646625 0                257.247559374258 0                

27.238           -0.00257125665437561 85.8953774827284 -32.2731927300366 175.977041849899 -32.2731927300364 175.977041849899 -0.00257125055653321 86.0586983362385 
! Gamma  !      0                439.946972739825 0                439.94699303907  
! Port Impedance  257.192990872762 0                257.189408357139 0                

27.247           -0.00268196302436471 85.4268656024847 -32.0901471056901 175.508909839608 -32.0901471056899 175.508909839609 -0.0026819566689099 85.5909456160271 
! Gamma  !      0                440.191702446848 0                440.191722734807 
! Port Impedance  257.134936073359 0                257.131354313253 0                

27.256           -0.00279809871873526 84.9553756039789 -31.9060924006269 175.037804982015 -31.9060924006267 175.037804982016 -0.00279809211983752 85.1202253112516 
! Gamma  !      0                440.436376952163 0                440.436397228851 
! Port Impedance  257.076978011097 0                257.073397005286 0                

27.265           -0.00291996321399134 84.4808444772651 -31.721015859339 174.563664381517 -31.7210158593388 174.563664381517 -0.00291995638691491 84.6464746426272 
! Gamma  !      0                440.680996347716 0                440.681016613149 
! Port Impedance  257.019116449439 0                257.015536196702 0                

27.274           -0.00304787437078096 84.003207392855  -31.5349044840935 174.086423326218 -31.5349044840934 174.086423326218 -0.00304786733184053 84.1696290179629 
! Gamma  !      0                440.92556072523  0                440.925580979422 
! Port Impedance  256.961351152625 0                256.957771651745 0                
