! Touchstone file from project Ka_PF
! Exported from HFSS 15.0.0
! Variables:
!  AA = 0.34in
!  BB = 0.145in
!  M01 = 0.1656in
!  M11 = 0.2127in
!  M12 = 0.1115in
!  M22 = 0.2363in
!  PL = 0.3in
!  RR = 0.035in
!  TT = 0.04in
!Data is not renormalized
# GHZ S DB
! Modal data exported
! Port[1] = 1:1
! Port[2] = 2:1
26.5             -0.000132288714429634 118.647007442107 -45.1626813056974 -151.298462041824 -45.1626813056981 -151.298462041825 -0.000132288713557868 118.75606847376  
! Gamma  !      -0               419.682051348677 -0               419.682066914462 
! Port Impedance  262.305532584664 0                262.3062321342   0                

26.509           -0.000135944382816832 118.307938579139 -45.0346771177324 -151.637406894158 -45.0346771177331 -151.637406894158 -0.000135943657590725 118.417247402841 
! Gamma  !      0                419.93164350785  0                419.931659064383 
! Port Impedance  262.238659574945 0                262.239358976002 0                

26.518           -0.00013976978659724 117.968135934098 -44.9062353190007 -151.977084830471 -44.9062353190011 -151.97708483047 -0.000139768427373162 118.077693969162 
! Gamma  !      0                420.18117208384  0                420.181187631135 
! Port Impedance  262.171905684565 0                262.172604937385 0                

26.527           -0.000143767636204212 117.627589425951 -44.7773523247636 -152.317505924145 -44.7773523247638 -152.317505924143 -0.000143765727839929 117.737398105951 
! Gamma  !      0                420.430637189858 0                420.430652727928 
! Port Impedance  262.105270600564 0                262.105969705388 0                

26.536           -0.000147940913797862 117.286288800905 -44.6480245052329 -152.658680421245 -44.6480245052331 -152.658680421243 -0.000147938535829975 117.396349573871 
! Gamma  !      0                420.680038938818 0                420.680054467676 
! Port Impedance  262.038754011091 0                262.039452968159 0                

26.545           -0.000152292881491182 116.944223628596 -44.5182481848071 -153.000618744345 -44.5182481848072 -153.000618744342 -0.000152290108298098 117.05453795721  
! Gamma  !      0                420.929377443338 0                420.929392962997 
! Port Impedance  261.972355605395 0                261.973054414947 0                

26.554           -0.000156827090024694 116.601383298152 -44.3880196412898 -153.343331496443 -44.3880196412898 -153.343331496438 -0.000156823991000209 116.71195265995  
! Gamma  !      0                421.17865281574  0                421.178668326214 
! Port Impedance  261.906075073823 0                261.906773736099 0                

26.563           -0.000161547387900268 116.257757014171 -44.2573351050927 -153.686829464989 -44.2573351050926 -153.686829464985 -0.000161544027635822 116.368582901744 
! Gamma  !      0                421.427865168052 0                421.427880669354 
! Port Impedance  261.839912107814 0                261.840610623052 0                

26.572           -0.000166457931055098 115.91333379257  -44.1261907584209 -154.031123626031 -44.1261907584208 -154.031123626025 -0.000166454369481536 116.024417713771 
! Gamma  !      0                421.67701461201  0                421.677030104153 
! Port Impedance  261.773866399894 0                261.774564768333 0                

26.581           -0.000171563193027659 115.568102456333 -43.9945827344404 -154.376225148457 -43.9945827344403 -154.376225148451 -0.000171559485596522 115.679445934484 
! Gamma  !      0                421.926101259056 0                421.926116742053 
! Port Impedance  261.707937643671 0                261.70863586555  0                

26.59            -0.000176867975695665 115.222051631134 -43.8625071164275 -154.722145398377 -43.8625071164274 -154.722145398371 -0.000176864173537341 115.33365620524  
! Gamma  !      0                422.175125220344 0                422.175140694208 
! Port Impedance  261.642125533834 0                261.642823609388 0                

26.599           -0.000182377420625611 114.87516974084  -43.7299599369003 -155.068895943609 -43.7299599369001 -155.068895943603 -0.000182373570705555 114.987036965802 
! Gamma  !      0                422.424086606733 0                422.424102071478 
! Port Impedance  261.576429766139 0                261.577127695607 0                

26.608           -0.00018809702100978 114.527445002893 -43.5969371767298 -155.416488558301 -43.5969371767295 -155.416488558295 -0.000188093166277018 114.639576449722 
! Gamma  !      0                422.672985528799 0                422.673000984437 
! Port Impedance  261.510850037416 0                261.511547821032 0                

26.617           -0.000194032634270781 114.178865423549 -43.4634347642328 -155.764935227678 -43.4634347642324 -155.764935227671 -0.000194028813824743 114.291262679593 
! Gamma  !      0                422.921822096825 0                422.921837543369 
! Port Impedance  261.445386045554 0                261.446083683554 0                

26.626           -0.000200190495359681 113.829418793003 -43.3294485742441 -156.114248152925 -43.3294485742437 -156.114248152918 -0.000200186744590022 113.942083462165 
! Gamma  !      0                423.17059642081  0                423.170611858273 
! Port Impedance  261.380037489503 0                261.380734982122 0                

26.635           -0.000206577230790163 113.479092680353 -43.1949744271675 -156.464439756212 -43.1949744271672 -156.464439756204 -0.000206573581531055 113.592026383319 
! Gamma  !      0                423.419308610464 0                423.41932403886  
! Port Impedance  261.314804069265 0                261.315501416738 0                

26.644           -0.000213199873416462 113.127874428439 -43.0600080880069 -156.815522685857 -43.0600080880065 -156.815522685849 -0.000213196354096066 113.241078802907 
! Gamma  !      0                423.667958775217 0                423.667974194557 
! Port Impedance  261.249685485892 0                261.250382688454 0                

26.653           -0.000220065878054422 112.775751148522 -42.9245452653746 -157.167509821642 -42.9245452653742 -157.167509821634 -0.000220062513826031 112.889227849436 
! Gamma  !      0                423.91654702421  0                423.916562434508 
! Port Impedance  261.184681441483 0                261.185378499365 0                

26.662           -0.000227183137943768 112.422709714816 -42.7885816104777 -157.520414280276 -42.7885816104774 -157.520414280269 -0.000227179950839136 112.536460414601 
! Gamma  !      0                424.165073466303 0                424.165088867572 
! Port Impedance  261.119791639173 0                261.120488552609 0                

26.671           -0.000234560002103701 112.068736758857 -42.6521127160818 -157.874249421029 -42.6521127160814 -157.874249421021 -0.000234557011172868 112.182763147657 
! Gamma  !      0                424.413538210074 0                424.413553602327 
! Port Impedance  261.055015783134 0                261.055712552357 0                

26.68            -0.00024220529368021 111.713818663712 -42.5151341154504 -158.229028851513 -42.5151341154499 -158.229028851506 -0.000242202515120718 111.828122449634 
! Gamma  !      0                424.66194136382  0                424.66195674707  
! Port Impedance  260.99035357857  0                260.991050203811 0                

26.689           -0.000250128329273551 111.357941558018 -42.3776412812611 -158.584766433651 -42.3776412812607 -158.584766433644 -0.000250125776560628 111.472524467373 
! Gamma  !      0                424.910283035559 0                424.910298409818 
! Port Impedance  260.925804731709 0                260.926501213201 0                

26.698           -0.000258338939334666 111.001091309837 -42.239629624496 -158.941476289807 -42.2396296244956 -158.9414762898  -0.000258336623364907 111.115955087396 
! Gamma  !      0                425.158563333027 0                425.158578698308 
! Port Impedance  260.861368949803 0                260.862065287794 0                

26.707           -0.000266847489713496 110.643253520345 -42.1010944933077 -159.299172809107 -42.1010944933073 -159.2991728091  -0.000266845418930223 110.758399929582 
! Gamma  !      0                425.406782363685 0                425.40679772     
! Port Impedance  260.797045941119 0                260.79774213579  0                

26.716           -0.000275664904383359 110.284413517315 -41.962031171858 -159.657870653942 -41.9620311718577 -159.657870653935 -0.000275663084895232 110.399844340669 
! Gamma  !      0                425.654940234714 0                425.654955582077 
! Port Impedance  260.732835414938 0                260.733531466552 0                

26.725           -0.000284802689429185 109.924556348422 -41.8224348791302 -160.017584766674 -41.8224348791298 -160.017584766667 -0.000284801125149061 110.040273387551 
! Gamma  !      0                425.903037053022 0                425.903052391445 
! Port Impedance  260.66873708155  0                260.669432990334 0                

26.734           -0.000294272958375844 109.56366677433  -41.6823007677136 -160.378330376534 -41.6823007677133 -160.378330376528 -0.000294271651132638 109.679671850377 
! Gamma  !      0                426.15107292524  0                426.151088254735 
! Port Impedance  260.604750652248 0                260.605446418429 0                

26.743           -0.000304088458933779 109.201729261584 -41.5416239225598 -160.740123006738 -41.5416239225595 -160.740123006731 -0.000304087408596855 109.318024215438 
! Gamma  !      0                426.399047957723 0                426.399063278303 
! Port Impedance  260.540875839323 0                260.54157146313  0                

26.752           -0.000314262601234325 108.838727975278 -41.4003993597094 -161.102978481813 -41.4003993597091 -161.102978481807 -0.000314261805821502 108.955314667843 
! Gamma  !      0                426.646962256556 0                426.646977568234 
! Port Impedance  260.477112356063 0                260.477807837723 0                

26.761           -0.000324809487642546 108.474646771497 -41.2586220249886 -161.466912935154 -41.2586220249884 -161.466912935148 -0.000324808943454136 108.591527083967 
! Gamma  !      0                426.89481592755  0                426.894831230338 
! Port Impedance  260.413459916748 0                260.414155256487 0                

26.77            -0.000335743944276885 108.109469189534 -41.1162867926758 -161.831942816806 -41.1162867926755 -161.8319428168  -0.000335743645990191 108.226645023664 
! Gamma  !      0                427.142609076245 0                427.142624370156 
! Port Impedance  260.34991823664  0                260.350613434686 0                

26.779           -0.00034708155426175 107.743178443856 -40.9733884641346 -162.198084901492 -40.9733884641345 -162.198084901487 -0.000347081495053535 107.860651722243 
! Gamma  !      0                427.390341807909 0                427.390357092955 
! Port Impedance  260.286487031988 0                260.287182088565 0                

26.788           -0.000358838692905995 107.375757415831 -40.8299217664165 -162.565356296895 -40.8299217664164 -162.56535629689 -0.000358838864550838 107.493530082195 
! Gamma  !      0                427.638014227543 0                427.638029503736 
! Port Impedance  260.223166020015 0                260.22386093535  0                

26.797           -0.000371032564845009 107.007188645186 -40.6858813508279 -162.933774452187 -40.6858813508277 -162.933774452182 -0.000371032957827167 107.125262664655 
! Gamma  !      0                427.885626439876 0                427.88564170723  
! Port Impedance  260.159954918919 0                260.160649693237 0                

26.806           -0.000383681243317219 106.6374543212   -40.5412617914635 -163.303357166842 -40.5412617914634 -163.303357166838 -0.000383681846932836 106.7558316806   
! Gamma  !      0                428.133178549374 0                428.133193807899 
! Port Impedance  260.096853447869 0                260.097548081393 0                

26.815           -0.000396803711670585 106.266536273622 -40.3960575837046 -163.674122599716 -40.3960575837045 -163.674122599712 -0.00039680451412895 106.385218981767 
! Gamma  !      0                428.380670660231 0                428.380685909941 
! Port Impedance  260.033861326996 0                260.034555819951 0                

26.824           -0.000410419907259326 105.89441596329  -40.2502631426798 -164.046089278422 -40.2502631426797 -164.046089278418 -0.000410420895783154 106.01340605128  
! Gamma  !      0                428.628102876379 0                428.628118117287 
! Port Impedance  259.970978277394 0                259.971672630002 0                

26.833           -0.000424550767860229 105.521074472461 -40.1038728016888 -164.419276109007 -40.1038728016887 -164.419276109003 -0.000424551928776304 105.640373993976 
! Gamma  !      0                428.875475301483 0                428.8754905336   
! Port Impedance  259.908204021112 0                259.908898233597 0                

26.842           -0.000439218280762046 105.146492494818 -39.9568808105873 -164.793702385937 -39.9568808105872 -164.793702385934 -0.000439219599602476 105.266103526424 
! Gamma  !      0                429.122788038945 0                429.122803262284 
! Port Impedance  259.845538281153 0                259.846232353738 0                

26.851           -0.000454445534704636 104.770650325161 -39.8092813341323 -165.169387802408 -39.8092813341323 -165.169387802405 -0.000454446996299419 104.890574966614 
! Gamma  !      0                429.370041191903 0                429.370056406476 
! Port Impedance  259.782980781469 0                259.783674714374 0                

26.86            -0.000470256774845488 104.393527848758 -39.6610684502857 -165.546352460996 -39.6610684502857 -165.546352460993 -0.000470258363392908 104.513768223313 
! Gamma  !      0                429.617234863234 0                429.617250069053 
! Port Impedance  259.720531246954 0                259.721225040401 0                

26.869           -0.000486677460902359 104.015104530347 -39.512236148477 -165.924616884651 -39.512236148477 -165.924616884649 -0.000486679160087593 104.135662785067 
! Gamma  !      0                429.864369155552 0                429.864384352629 
! Port Impedance  259.658189403443 0                259.658883057654 0                

26.878           -0.000503734328751929 103.635359402775 -39.3627783278212 -166.304202028058 -39.3627783278212 -166.304202028056 -0.000503736121804899 103.756237708849 
! Gamma  !      0                430.111444171211 0                430.111459359559 
! Port Impedance  259.59595497771  0                259.596648492903 0                

26.887           -0.000521455455596599 103.254271055259 -39.2126887952931 -166.685129289378 -39.2126887952931 -166.685129289377 -0.000521457325386477 103.375471608318 
! Gamma  !      0                430.358460012307 0                430.358475191937 
! Port Impedance  259.533827697456 0                259.534521073852 0                

26.896           -0.000539870329021839 102.871817621258 -39.0619612638552 -167.067420522374 -39.0619612638552 -167.067420522373 -0.000539872258140938 102.993342641696 
! Gamma  !      0                430.605416780674 0                430.6054319516   
! Port Impedance  259.471807291314 0                259.472500529133 0                

26.905           -0.000559009920129553 102.487976765928 -38.9105893505379 -167.451098048952 -38.910589350538 -167.451098048951 -0.000559011890959857 102.609828499227 
! Gamma  !      0                430.852314577893 0                430.852329740126 
! Port Impedance  259.40989348884  0                259.4105865883   0                

26.914           -0.000578906761019771 102.102725673166 -38.7585665744717 -167.836184672125 -38.7585665744718 -167.836184672124 -0.000578908755815866 102.22490639022  
! Gamma  !      0                431.099153505283 0                431.099168658838 
! Port Impedance  259.34808602051  0                259.34877898183  0                

26.923           -0.000599595026918096 101.716041032199 -38.6058863548686 -168.222703689415 -38.6058863548687 -168.222703689414 -0.000599597027879491 101.838553029646 
! Gamma  !      0                431.34593366391  0                431.3459488088   
! Port Impedance  259.286384617716 0                259.287077441113 0                

26.932           -0.000621110623226116 101.327899023724 -38.452542008952 -168.610678906718 -38.4525420089522 -168.610678906718 -0.000621112612563776 101.450744624277 
! Gamma  !      0                431.592655154585 0                431.592670290831 
! Port Impedance  259.224789012762 0                259.225481698453 0                

26.941           -0.000643491277828933 100.938275305562 -38.2985267498336 -169.000134652649 -38.2985267498337 -169.000134652649 -0.000643493237841455 101.061456858344 
! Gamma  !      0                431.839318077863 0                431.839333205797 
! Port Impedance  259.16329893886  0                259.163991487063 0                

26.95            -0.000666776638980518 100.547144997822 -38.1438336843349 -169.391095793378 -38.1438336843351 -169.391095793378 -0.000666778552117773 100.670664878703 
! Gamma  !      0                432.085922534046 0                432.08593765295  
! Port Impedance  259.101914130129 0                259.102606541059 0                

26.959           -0.000691008379161918 100.154482667538 -37.988455810753 -169.783587747992 -37.9884558107531 -169.783587747992 -0.000691010228083871 100.278343279475 
! Gamma  !      0                432.332468623184 0                432.332483733484 
! Port Impedance  259.040634321585 0                259.041326595458 0                

26.968           -0.00071623030527365 99.760262312775  -37.832386016567 -170.17763650439 -37.8323860165671 -170.177636504391 -0.000716232072912071 99.8844660861522 
! Gamma  !      0                432.578956445076 0                432.578971546771 
! Port Impedance  258.979459249141 0                258.980151386174 0                

26.977           -0.000742488475596011 99.364457346164  -37.675617076086 -170.573268635751 -37.6756170760862 -170.573268635751 -0.000742490145226797 99.4890067391373 
! Gamma  !      0                432.825386099267 0                432.825401192367 
! Port Impedance  258.918388649606 0                258.919080650013 0                

26.986           -0.00076983132398006 98.9670405778567 -37.5181416480346 -170.970511317572 -37.5181416480348 -170.970511317573 -0.000769832879262767 99.0919380766992 
! Gamma  !      0                433.071757685055 0                433.07177276957  
! Port Impedance  258.857422260676 0                258.85811412467  0                

26.995           -0.000798309791707994 98.567984197867  -37.359952273074 -171.369392345338 -37.3599522730742 -171.369392345339 -0.0007983112167543 98.6932323173157 
! Gamma  !      0                433.318071301489 0                433.318086377431 
! Port Impedance  258.796559820932 0                258.797251548725 0                

27.004           -0.000827977467600621 98.1672597577751 -37.2010413712589 -171.76994015281 -37.2010413712591 -171.769940152811 -0.000827978747013856 98.2928610413793 
! Gamma  !      0                433.564327047367 0                433.564342114746 
! Port Impedance  258.735801069821 0                258.736492661642 0                

27.013           -0.000858890736850403 97.7648381517667 -37.0414012394262 -172.172183830989 -37.0414012394264 -172.172183830991 -0.000858891855787269 97.8907951722378 
! Gamma  !      0                433.810525021241 0                433.81054008007  
! Port Impedance  258.675145747715 0                258.675837203759 0                

27.022           -0.000891108939259279 97.3606895969803 -36.881024048514 -172.576153147773 -36.8810240485142 -172.576153147775 -0.000891109883469377 97.4870049565417 
! Gamma  !      0                434.056665321417 0                434.056680371707 
! Port Impedance  258.614593595806 0                258.61528491629  0                

27.031           -0.000924694537434257 96.9547836131288 -36.7199018408088 -172.98187856833 -36.719901840809 -172.981878568332 -0.000924695293311196 97.0814599438679 
! Gamma  !      0                434.302748045954 0                434.302763087716 
! Port Impedance  258.554144356182 0                258.554835541318 0                

27.04            -0.000959713295703216 96.5470890013682 -36.5580265271195 -173.389391276236 -36.5580265271197 -173.389391276239 -0.000959713850325112 96.674128965587  
! Gamma  !      0                434.548773292666 0                434.548788325913 
! Port Impedance  258.493797771794 0                258.494488821794 0                

27.049           -0.000996234470419009 96.1375738223756 -36.3953898838743 -173.7987231954  -36.3953898838745 -173.798723195402 -0.00099623481158705 96.2649801129424 
! Gamma  !      0                434.794741159124 0                434.794756183867 
! Port Impedance  258.433553586456 0                258.434244501531 0                

27.058           -0.00103433101248507 95.7262053736043 -36.2319835501393 -174.209907012801 -36.2319835501395 -174.209907012803 -0.00103433112876691 95.8539807143048 
! Gamma  !      0                435.040651742654 0                435.040666758904 
! Port Impedance  258.373411544839 0                258.3741023252   0                

27.067           -0.00107407978295427 95.3129501656787 -36.0677990245568 -174.622976202105 -36.067799024557 -174.622976202108 -0.00107407966370911 95.4410973115662 
! Gamma  !      0                435.286505140341 0                435.286520148109 
! Port Impedance  258.313371392473 0                258.31406203833  0                

27.076           -0.00111556178258005 94.8977738978891 -35.902827662199 -175.037965048169 -35.9028276621992 -175.037965048172 -0.00111556141800491 95.0262956356338 
! Gamma  !      0                435.532301449026 0                435.532316448325 
! Port Impedance  258.253432875737 0                258.254123387299 0                

27.085           -0.00115886239634561 94.4806414327472 -35.7370606713374 -175.454908672486 -35.7370606713376 -175.454908672489 -0.00115886177749944 94.6095405809838 
! Gamma  !      0                435.778040765312 0                435.778055756153 
! Port Impedance  258.193595741859 0                258.194286119336 0                

27.094           -0.00120407165398875 94.061516769558  -35.5704891101218 -175.873843059615 -35.570489110122 -175.873843059618 -0.00120407077282231 94.1907961792309 
! Gamma  !      0                436.02372318556  0                436.023738167954 
! Port Impedance  258.133859738912 0                258.134549982512 0                

27.103           -0.00125128450771176 93.6403630169636 -35.4031038831688 -176.294805084643 -35.403103883169 -176.294805084647 -0.00125128335709853 93.77002557167   
! Gamma  !      0                436.269348805891 0                436.26936377985  
! Port Impedance  258.07422461581  0                258.074914725742 0                

27.112           -0.00130060112825677 93.2171423644111 -35.2348957380568 -176.717832541721 -35.234895738057 -176.717832541724 -0.0013005997020054 93.3471909807404 
! Gamma  !      0                436.514917722189 0                436.514932687724 
! Port Impedance  258.014690122305 0                258.015380098775 0                

27.121           -0.00135212722069379 92.7918160524948 -35.0658552617231 -177.142964173717 -35.0658552617233 -177.142964173721 -0.00135212551358195 92.9222536803647 
! Gamma  !      0                436.7604300301   0                436.760444987223 
! Port Impedance  257.955256008981 0                257.955945852198 0                

27.13            -0.00140597436136056 92.364344342118  -34.8959728767608 -177.57023970307 -34.895972876761 -177.570239703073 -0.00140597236915029 92.4951739651059 
! Gamma  !      0                437.005885825033 0                437.005900773754 
! Port Impedance  257.895922027255 0                257.896611737425 0                

27.139           -0.00146226035746434 91.9346864824225 -34.725238837614 -177.999699863852 -34.7252388376142 -177.999699863856 -0.00146225807691272 92.0659111180917 
! Gamma  !      0                437.251285202159 0                437.251300142491 
! Port Impedance  257.83668792937  0                257.8373775067   0                

27.148           -0.00152110963102507 91.5028006774228 -34.5536432266657 -178.431386435148 -34.5536432266658 -178.431386435152 -0.00152110705990637 91.6344233776427 
! Gamma  !      0                437.496628256418 0                437.49664318837  
! Port Impedance  257.777553468391 0                257.778242913087 0                

27.157           -0.00158265362896289 91.068644051285  -34.3811759502166 -178.865342275776 -34.3811759502168 -178.865342275779 -0.00158265076607726 91.200667902545  
! Gamma  !      0                437.74191508251  0                437.741930006094 
! Port Impedance  257.718518398207 0                257.719207710473 0                

27.166           -0.00164703126123235 90.6321726121849 -34.2078267343518 -179.301611360434 -34.2078267343519 -179.301611360438 -0.00164702810641065 90.7646007359003 
! Gamma  !      0                437.987145774907 0                437.987160690132 
! Port Impedance  257.659582473519 0                257.660271653561 0                

27.175           -0.00171438936913049 90.1933412146759 -34.0335851206906 -179.740238817343 -34.0335851206908 -179.740238817347 -0.00171438592325168 90.3261767674852 
! Gamma  !      0                438.232320428057 0                438.232335334719 
! Port Impedance  257.600745449844 0                257.601434497866 0                

27.184           -0.00178488322604169 89.7521035204933 -33.8584404620174 179.818729032559 -33.8584404620176 179.818729032555 -0.00178487949102897 89.885349694546  
! Gamma  !      0                438.477439135298 0                438.477454033859 
! Port Impedance  257.542007083508 0                257.542695999714 0                

27.193           -0.00185867707302243 89.3084119577186 -33.6823819177896 179.375244634769 -33.6823819177898 179.375244634765 -0.00185867305184901 89.4420719809525 
! Gamma  !      0                438.722501991088 0                438.722516881323 
! Port Impedance  257.483367131643 0                257.484055916238 0                

27.202           -0.00193594469192342 88.8622176782211 -33.5053984495181 178.929259158657 -33.5053984495182 178.929259158653 -0.00193594038860583 88.9962948146271 
! Gamma  !      0                438.96750908873  0                438.967523970653 
! Port Impedance  257.424825352185 0                257.425514005371 0                

27.211           -0.00201687001887179 88.4134705132916 -33.3274788160182 178.48072245309  -33.3274788160183 178.480722453086 -0.00201686543847372 88.5479680631663 
! Gamma  !      0                439.212460521537 0                439.21247539516  
! Port Impedance  257.366381503869 0                257.367070025849 0                

27.22            -0.00210164780126993 87.9621189273765 -33.1486115685258 178.029583000158 -33.1486115685259 178.029583000154 -0.00210164294989455 88.0970402275591 
! Gamma  !      0                439.457356382591 0                439.457371247926 
! Port Impedance  257.308035346227 0                257.308723737202 0                

27.229           -0.00219048430159245 87.5081099698152 -32.9687850456759 177.575787866905 -32.968785045676 177.575787866901 -0.00219047918637184 87.6434583939096 
! Gamma  !      0                439.702196764747 0                439.702211621804 
! Port Impedance  257.249786639581 0                257.250474899754 0                

27.238           -0.00228359805169475 87.0513892244788 -32.7879873683382 177.119282654955 -32.7879873683384 177.119282654951 -0.00228359268078411 87.1871681830571 
! Gamma  !      0                439.946981760629 0                439.946996609419 
! Port Impedance  257.191635145048 0                257.19232327462  0                

27.247           -0.00238122066156605 86.5919007572042 -32.6062064343084 176.660011447938 -32.6062064343085 176.660011447934 -0.0023812150441235 86.7281136979915 
! Gamma  !      0                440.191711462637 0                440.191726303172 
! Port Impedance  257.133580624526 0                257.134268623698 0                

27.256           -0.00248359768676561 86.129587060903  -32.4234299128473 176.197916756584 -32.4234299128474 176.19791675658  -0.00248359183294448 86.2662374689408 
! Gamma  !      0                440.436385962943 0                440.436400795233 
! Port Impedance  257.075622840699 0                257.076310709672 0                

27.265           -0.00259098955927362 85.6643889982307 -32.2396452390676 175.732939461386 -32.2396452390677 175.732939461383 -0.00259098348019746 85.8014803960174 
! Gamma  !      0                440.681005353494 0                440.681020177551 
! Port Impedance  257.017761557032 0                257.018449296005 0                

27.274           -0.00270367258674682 85.1962457416817 -32.0548396081616 175.265018752678 -32.0548396081617 175.265018752674 -0.00270366629448528 85.3337816892878 
! Gamma  !      0                440.925569726013 0                440.925584541848 
! Port Impedance  256.959996537763 0                256.960684146936 0                
