! Touchstone file from project Ka_PF
! Exported from HFSS 15.0.0
! Variables:
!  AA = 0.34in
!  BB = 0.145in
!  M01 = 0.166in
!  M11 = 0.2126in
!  M12 = 0.1115in
!  M22 = 0.2362in
!  PL = 0.3in
!  RR = 0.035in
!  TT = 0.04in
!Data is not renormalized
# GHZ S DB
! Modal data exported
! Port[1] = 1:1
! Port[2] = 2:1
26.5             -0.000143439143153236 117.857966747875 -44.811238051694 -152.189198916729 -44.8112380516925 -152.189198916744 -0.000143439140810846 117.763635418616 
! Gamma  !      -0               419.68203739268  -0               419.682070897229 
! Port Impedance  262.306152756645 0                262.308749200601 0                

26.509           -0.000147434831487596 117.515603491668 -44.6827971589562 -152.531571253169 -44.6827971589548 -152.531571253183 -0.000147434413405006 117.42124675214  
! Gamma  !      0                419.931629560148 0                419.931663044784 
! Port Impedance  262.239279618154 0                262.2418753997   0                

26.518           -0.000151613399236949 117.17247522851  -44.5539161883282 -152.874708439568 -44.5539161883267 -152.874708439582 -0.000151612616819095 117.078094377478 
! Gamma  !      0                420.181158144421 0                420.181191609171 
! Port Impedance  262.172525599208 0                262.175120719526 0                

26.527           -0.000155977972681423 116.828571412829 -44.4245915216078 -153.218620973144 -44.4245915216063 -153.218620973157 -0.000155976874258962 116.734167780031 
! Gamma  !      0                420.43062325871  0                420.430656703604 
! Port Impedance  262.105890386848 0                262.108484847115 0                

26.536           -0.00016053197119921 116.483881317254 -44.2948194955524 -153.563319533341 -44.294819495551 -153.563319533352 -0.000160530602113381 116.389456264202 
! Gamma  !      0                420.68002501593  0                420.680058440995 
! Port Impedance  262.039373669222 0                262.041967470612 0                

26.545           -0.000165279116399432 116.138394028567 -44.1645964011041 -153.908814985907 -44.1645964011027 -153.908814985918 -0.000165277519106203 116.043948949377 
! Gamma  !      0                420.929363528697 0                420.929396933963 
! Port Impedance  261.972975135579 0                261.975568279262 0                

26.554           -0.000170223441774931 115.792098443563 -44.0339184825982 -154.255118387073 -44.0339184825968 -154.255118387082 -0.000170221655935649 115.6976347658   
! Gamma  !      0                421.178638909334 0                421.178672294829 
! Port Impedance  261.906694476264 0                261.90928696341  0                

26.563           -0.000175369302884641 115.444983264775 -43.9027819369543 -154.602240987836 -43.902781936953 -154.602240987844 -0.000175367365448963 115.350502450334 
! Gamma  !      0                421.42785126987  0                421.427884635622 
! Port Impedance  261.840531382717 0                261.843123214489 0                

26.572           -0.000180721388064582 115.097036996105 -43.7711829128509 -154.950194238365 -43.7711829128496 -154.950194238372 -0.000180719333373658 115.002540542109 
! Gamma  !      0                421.67700072204  0                421.677034068078 
! Port Impedance  261.774485547463 0                261.777076725024 0                

26.581           -0.000186284729765861 114.748247938314 -43.6391175098808 -155.298989792518 -43.6391175098797 -155.298989792525 -0.000186282589634304 114.653737378044 
! Gamma  !      0                421.926087377286 0                421.926120703638 
! Port Impedance  261.708556664111 0                261.71114718862  0                

26.59            -0.000192064716471471 114.398604184401 -43.5065817776901 -155.648639512484 -43.506581777689 -155.64863951249 -0.000192062520283788 114.304081088248 
! Gamma  !      0                422.175111346762 0                422.175144653456 
! Port Impedance  261.642744427347 0                261.645334299959 0                

26.599           -0.000198067105297023 114.048093614842 -43.3735717150966 -155.999155473543 -43.3735717150956 -155.999155473548 -0.000198064880079939 113.953559591297 
! Gamma  !      0                422.424072741329 0                422.424106028393 
! Port Impedance  261.577048532929 0                261.579637754796 0                

26.608           -0.000204298035250345 113.696703892708 -43.2400832691906 -156.350549968961 -43.2400832691896 -156.350549968965 -0.000204295805766344 113.602160589368 
! Gamma  !      0                422.672971671559 0                422.673004939021 
! Port Impedance  261.511468677684 0                261.514057249957 0                

26.617           -0.000210764041221347 113.34442245863  -43.1061123344154 -156.70283551502 -43.1061123344145 -156.702835515023 -0.000210761830058353 113.249871563248 
! Gamma  !      0                422.921808247738 0                422.921841495627 
! Port Impedance  261.446004559502 0                261.448592483328 0                

26.626           -0.00021747206876291 112.991236525637 -42.9716547516281 -157.056024856178 -42.9716547516273 -157.056024856181 -0.000217469896402753 112.896679767195 
! Gamma  !      0                423.170582579865 0                423.170615808207 
! Port Impedance  261.380655877332 0                261.383243153854 0                

26.635           -0.000224429489636786 112.637133073834 -42.8367063071399 -157.410130970378 -42.8367063071393 -157.41013097038 -0.000224427374549705 112.54257222365  
! Gamma  !      0                423.41929477765  0                423.419327986474 
! Port Impedance  261.315422331177 0                261.318008961535 0                

26.644           -0.000231644118230626 112.282098844935 -42.7012627317355 -157.765167074505 -42.7012627317349 -157.765167074506 -0.000231642076951453 112.187535717807 
! Gamma  !      0                423.667944950521 0                423.667978139855 
! Port Impedance  261.250303622088 0                261.252889607421 0                

26.653           -0.000239124228891476 111.926120336638 -42.5653196996709 -158.121146629989 -42.5653196996704 -158.121146629989 -0.000239122276093883 111.831556792019 
! Gamma  !      0                423.91653320762  0                423.916566377492 
! Port Impedance  261.185299452161 0                261.187884793604 0                

26.662           -0.000246878574169984 111.569183796835 -42.4288728276494 -158.478083348576 -42.4288728276489 -158.478083348576 -0.000246876722747489 111.474621740044 
! Gamma  !      0                424.165059657809 0                424.165092808246 
! Port Impedance  261.120409524533 0                261.122994223218 0                

26.671           -0.000254916404096867 111.211275217652 -42.291917673775 -158.835991198256 -42.2919176737747 -158.835991198256 -0.000254914665237086 111.116716601128 
! Gamma  !      0                424.413524409664 0                424.413557540694 
! Port Impedance  261.055633543376 0                261.058217600432 0                

26.68            -0.000263247486499388 110.852380329324 -42.1544497364831 -159.194884409362 -42.1544497364829 -159.194884409361 -0.000263245869771786 110.757827153909 
! Gamma  !      0                424.661927571483 0                424.661960683133 
! Port Impedance  260.990971213892 0                260.993554630444 0                

26.689           -0.000271882128463948 110.492484593874 -42.0164644534468 -159.554777480846 -42.0164644534467 -159.554777480844 -0.000271880641866125 110.397938910147 
! Gamma  !      0                424.910269251283 0                424.91030234358  
! Port Impedance  260.92642224231  0                260.929005019482 0                

26.698           -0.000280831198937148 110.131573198624 -41.8779572004592 -159.91568518674 -41.8779572004591 -159.915685186739 -0.000280829848997057 110.037037108267 
! Gamma  !      0                425.158549556801 0                425.158582629773 
! Port Impedance  260.86198633588  0                260.864568474792 0                

26.707           -0.000290106152629277 109.769631049497 -41.7389232902915 -160.277622582802 -41.7389232902915 -160.277622582801 -0.000290104944456332 109.67510670671  
! Gamma  !      0                425.406768595497 0                425.406801649171 
! Port Impedance  260.79766320287  0                260.800244704639 0                

26.716           -0.000299719055197161 109.406642764128 -41.5993579715249 -160.64060501336 -41.599357971525 -160.640605013358 -0.000299717992556486 109.312132377084 
! Gamma  !      0                425.654926474553 0                425.654959508958 
! Port Impedance  260.733452552564 0                260.736033418301 0                

26.725           -0.000309682609845279 109.042592664767 -41.4592564273561 -161.004648118357 -41.4592564273562 -161.004648118355 -0.000309681695241609 108.948098497116 
! Gamma  !      0                425.903023300877 0                425.903056316038 
! Port Impedance  260.669354095231 0                260.671934326063 0                

26.734           -0.000320010185421406 108.677464770964 -41.3186137743763 -161.369767840617 -41.3186137743766 -161.369767840614 -0.000320009420142472 108.582989143384 
! Gamma  !      0                426.151059181098 0                426.151092177044 
! Port Impedance  260.605367542194 0                260.607947139215 0                

26.743           -0.000330715846040593 108.311242792036 -41.1774250613231 -161.735980433312 -41.1774250613235 -161.735980433309 -0.000330715230237164 108.216788083833 
! Gamma  !      0                426.399034221575 0                426.399067198331 
! Port Impedance  260.541492605728 0                260.544071570047 0                

26.752           -0.000341814382404402 107.943910119303 -41.0356852678024 -162.103302467677 -41.0356852678029 -162.103302467674 -0.00034181391515875 107.849478770061 
! Gamma  !      0                426.64694852839  0                426.646981485984 
! Port Impedance  260.477728999122 0                260.480307331842 0                

26.761           -0.000353321344860799 107.575449818082 -40.8933893029829 -162.471750840943 -40.8933893029834 -162.471750840941 -0.00035332102423684 107.481044329369 
! Gamma  !      0                426.894802207355 0                426.894835145813 
! Port Impedance  260.414076436654 0                260.416654138875 0                

26.77            -0.000365253078315703 107.205844619439 -40.7505320042592 -162.841342784529 -40.7505320042598 -162.841342784526 -0.000365252901437107 107.111467556564 
! Gamma  !      0                427.142595364008 0                427.142628283359 
! Port Impedance  260.350534633588 0                260.353111706409 0                

26.779           -0.000377626759135151 106.835076911683 -40.6071081358858 -163.212095872472 -40.6071081358864 -163.21209587247 -0.000377626722238378 106.740730905515 
! Gamma  !      0                427.390328103621 0                427.39036100389  
! Port Impedance  260.287103306171 0                260.289679750685 0                

26.788           -0.000390460434120168 106.463128731593 -40.463112387577 -163.584028030142 -40.4631123875777 -163.584028030139 -0.000390460532610395 106.368816480433 
! Gamma  !      0                427.638000531191 0                427.638033412406 
! Port Impedance  260.223782171627 0                260.226357988927 0                

26.797           -0.000403773061691398 106.089981755373 -40.3185393730769 -163.957157543208 -40.3185393730776 -163.957157543205 -0.000403773290214843 105.99570602689  
! Gamma  !      0                427.885612751451 0                427.885645613638 
! Port Impedance  260.160570948153 0                260.163146139328 0                

26.806           -0.000417584555447574 105.715617289312 -40.1733836286935 -164.331503066905 -40.1733836286943 -164.331503066902 -0.000417584907931995 105.621380922547 
! Gamma  !      0                428.133164868863 0                428.133197712049 
! Port Impedance  260.097469354916 0                260.100043921052 0                

26.815           -0.00043191583016837 105.340016260164 -40.0276396118003 -164.707083635588 -40.0276396118011 -164.707083635586 -0.000431916299898279 105.245822167593 
! Gamma  !      0                428.380656987625 0                428.380689811835 
! Port Impedance  260.034477112049 0                260.037051054229 0                

26.824           -0.000446788850499995 104.963159205204 -39.8813016993013 -165.083918672595 -39.8813016993022 -165.083918672592 -0.000446789430158121 104.86901037487  
! Gamma  !      0                428.628089211665 0                428.628122016928 
! Port Impedance  259.971593940644 0                259.974167259949 0                

26.833           -0.000462226682414359 104.585026261972 -39.7343641860597 -165.462028000427 -39.7343641860607 -165.462028000425 -0.00046222736414433 104.490925759697 
! Gamma  !      0                428.875461644651 0                428.875494430992 
! Port Impedance  259.908819562751 0                259.911392260259 0                

26.842           -0.000478253547657061 104.205597157687 -39.5868212832894 -165.841431851262 -39.5868212832904 -165.84143185126 -0.000478254323111616 104.111548129344 
! Gamma  !      0                429.122774389984 0                429.12280715743  
! Port Impedance  259.846153701372 0                259.848725778158 0                

26.851           -0.000494894881347395 103.824851198315 -39.4386671169079 -166.222150877806 -39.4386671169088 -166.222150877804 -0.000494895741739487 103.730856872186 
! Gamma  !      0                429.370027550802 0                429.370060299378 
! Port Impedance  259.783596080457 0                259.786167537594 0                

26.86            -0.000512177392916727 103.442767257275 -39.2898957258485 -166.604206164509 -39.2898957258495 -166.604206164508 -0.000512178329075458 103.348830946487 
! Gamma  !      0                429.617221229982 0                429.617253959715 
! Port Impedance  259.721146424901 0                259.723717263458 0                

26.869           -0.000530129130632401 103.059323763778 -39.1405010603333 -166.987619239146 -39.1405010603344 -166.987619239145 -0.0005301301330493 102.965448868819 
! Gamma  !      0                429.864355530137 0                429.864388241054 
! Port Impedance  259.658804460539 0                259.661374681584 0                

26.878           -0.000548779549892608 102.674498690785 -38.9904769801028 -167.372412084786 -38.9904769801038 -167.372412084785 -0.000548780608771779 102.580688702107 
! Gamma  !      0                430.111430553624 0                430.11146324575  
! Port Impedance  259.596569914143 0                259.599139518739 0                

26.887           -0.000568159585547143 102.28826954255  -38.8398172526022 -167.758607152159 -38.8398172526032 -167.758607152158 -0.000568160690849615 102.194528043262 
! Gamma  !      0                430.358446402535 0                430.358479075897 
! Port Impedance  259.534442513416 0                259.537011502625 0                

26.896           -0.000588301728488388 101.900613341757 -38.6885155511238 -168.146227372448 -38.6885155511249 -168.146227372447 -0.000588302869975511 101.806944010411 
! Gamma  !      0                430.605403178708 0                430.605435833332 
! Port Impedance  259.472421986988 0                259.47499036187  0                

26.905           -0.000609240106791616 101.511506616223 -38.5365654529031 -168.535296170502 -38.5365654529042 -168.535296170501 -0.000609241274086776 101.41791322969  
! Gamma  !      0                430.852300983721 0                430.852333619633 
! Port Impedance  259.410508064416 0                259.413075826026 0                

26.914           -0.000631010571710763 101.120925385141 -38.3839604371671 -168.92583747851 -38.3839604371682 -168.92583747851 -0.000631011754323481 101.027411821597 
! Gamma  !      0                431.099139918895 0                431.099172536121 
! Port Impedance  259.348700476175 0                259.351267625568 0                

26.923           -0.000653650788799196 100.728845144864 -38.230693883135 -169.317875750141 -38.2306938831361 -169.317875750141 -0.000653651976171417 100.635415386874 
! Gamma  !      0                431.345920085296 0                431.345952683861 
! Port Impedance  259.286998953657 0                259.289565491883 0                

26.932           -0.000677200334526344 100.335240854194 -38.076759067968 -169.711435975165 -38.0767590679691 -169.711435975166 -0.000677201516085472 100.2418989919   
! Gamma  !      0                431.592641583733 0                431.592674163664 
! Port Impedance  259.225403229166 0                259.227969157272 0                

26.941           -0.000701700798731197 99.9400869191629 -37.9221491646672 -170.106543694599 -37.9221491646683 -170.106543694599 -0.000701701963916126 99.8468371535976 
! Gamma  !      0                431.839304514762 0                431.839337076085 
! Port Impedance  259.163913035913 0                259.166478354946 0                

26.95            -0.000727195893280755 99.5433571772902 -37.76685723992  -170.503225016358 -37.766857239921 -170.503225016359 -0.000727197031592012 99.4502038237918 
! Gamma  !      0                432.085908978686 0                432.085941521427 
! Port Impedance  259.102528108016 0                259.105092819019 0                

26.959           -0.000753731567370048 99.1450248812805 -37.6108762518892 -170.90150663148 -37.6108762518903 -170.901506631481 -0.000753732668405469 99.0519723730408 
! Gamma  !      0                432.332455075555 0                432.33248759974  
! Port Impedance  259.041248180491 0                259.043812284504 0                

26.968           -0.000781356129870541 98.7450626821531 -37.4541990479486 -171.301415830907 -37.4541990479497 -171.301415830908 -0.000781357183355163 98.6521155738874 
! Gamma  !      0                432.578942905166 0                432.578975410826 
! Port Impedance  258.980072989252 0                258.982636487313 0                

26.977           -0.000810120379207101 98.3434426117723 -37.2968183623586 -171.702980522873 -37.2968183623596 -171.702980522874 -0.000810121375032695 98.2506055835223 
! Gamma  !      0                432.825372567066 0                432.82540505427  
! Port Impedance  258.919002271105 0                258.921565164249 0                

26.986           -0.000840077741262146 97.9401360647525 -37.1387268138825 -172.106229250909 -37.1387268138835 -172.10622925091 -0.00084007866952868 97.8474139258264 
! Gamma  !      0                433.071744160553 0                433.071776629164 
! Port Impedance  258.858035763747 0                258.860598053006 0                

26.995           -0.000871284415849086 97.5351137797154 -36.9799169033426 -172.511191212499 -36.9799169033436 -172.511191212501 -0.000871285266887865 97.4425114727708 
! Gamma  !      0                433.318057784674 0                433.318090234855 
! Port Impedance  258.797173205756 0                258.799734892161 0                

27.004           -0.000903799532326229 97.1283458198681 -36.8203810111111 -172.917896278416 -36.8203810111121 -172.917896278418 -0.000903800296740394 97.0358684251446 
! Gamma  !      0                433.564313538229 0                433.564345969985 
! Port Impedance  258.736414336597 0                258.738975421174 0                

27.013           -0.000937685314954289 96.7198015528755 -36.6601113945374 -173.326375012752 -36.6601113945383 -173.326375012753 -0.000937685983642922 96.6274542925819 
! Gamma  !      0                433.81051151977  0                433.810543933123 
! Port Impedance  258.675758896607 0                258.678319380382 0                

27.022           -0.000973007258700112 96.3094496299942 -36.4991001853072 -173.736658693696 -36.4991001853081 -173.736658693698 -0.00097300782289102 96.2172378728582 
! Gamma  !      0                434.056651827602 0                434.056684222576 
! Port Impedance  258.615206627002 0                258.617766510997 0                

27.031           -0.00100983431613734 95.8972579644387 -36.337339386734 -174.148779335073 -36.3373393867348 -174.148779335076 -0.0010098347674208 95.8051872304242 
! Gamma  !      0                434.302734559785 0                434.302766936404 
! Port Impedance  258.554757269864 0                258.557316555098 0                

27.04            -0.00104823909628296 95.4831937089425 -36.1748208709776 -174.562769708685 -36.1748208709784 -174.562769708687 -0.00104823942663102 95.3912696741438 
! Gamma  !      0                434.548759814133 0                434.548792172422 
! Port Impedance  258.494410568143 0                258.496969255634 0                

27.049           -0.00108829807611731 95.0672232324818 -36.0115363761914 -174.978663367487 -36.0115363761922 -174.978663367489 -0.00108829827791075 94.9754517342008 
! Gamma  !      0                434.794727688216 0                434.7947600282   
! Port Impedance  258.434166265654 0                258.436724356415 0                

27.058           -0.00113009182571376 94.6493120961225 -35.8474775035931 -175.396494669638 -35.8474775035938 -175.39649466964 -0.0011300918917759 94.5576991381369 
! Gamma  !      0                435.04063827936  0                435.040670601065 
! Port Impedance  258.374024107067 0                258.376581602112 0                

27.067           -0.00117370524793156 94.2294250279529 -35.6826357144583 -175.816298803464 -35.682635714459 -175.816298803467 -0.00117370517153879 94.1379767859846 
! Gamma  !      0                435.286491684651 0                435.2865239881   
! Port Impedance  258.313983837911 0                258.316540738248 0                

27.076           -0.0012192278336545 93.807525897059  -35.5170023270342 -176.238111813378 -35.5170023270349 -176.23811181338 -0.00121922760856913 93.7162487244502 
! Gamma  !      0                435.53228800093  0                435.532320286149 
! Port Impedance  258.254045204565 0                258.256601511202 0                

27.085           -0.00126675393370517 93.3835776865016 -35.3505685133721 -176.66197062678 -35.3505685133727 -176.661970626783 -0.00126675355419951 93.2924781201086 
! Gamma  !      0                435.7780273248   0                435.778059591813 
! Port Impedance  258.194207954256 0                258.196763668197 0                

27.094           -0.00131638304862066 92.9575424652468 -35.1833252960738 -177.087913082025 -35.1833252960744 -177.087913082028 -0.00131638250948183 92.8666272315609 
! Gamma  !      0                436.02370975262  0                436.023742001452 
! Port Impedance  258.134471835058 0                258.137026957305 0                

27.103           -0.00136822013753014 92.5293813590038 -35.0152635449526 -177.515977957454 -35.0152635449532 -177.515977957457 -0.00136821943409964 92.4386573805089 
! Gamma  !      0                436.269335380514 0                436.26936761119  
! Port Impedance  258.074836595883 0                258.077391127436 0                

27.112           -0.00142237594754597 92.0990545199187 -34.8463739736044 -177.946205001582 -34.8463739736049 -177.946205001585 -0.0014223750757158 92.0085289216969 
! Gamma  !      0                436.514904304365 0                436.514936516909 
! Port Impedance  258.015301986484 0                258.017855928339 0                

27.121           -0.00147896736510537 91.6665210950713 -34.6766471358863 -178.378634964469 -34.6766471358868 -178.378634964472 -0.00147896632134984 91.5762012116671 
! Gamma  !      0                436.760416619819 0                436.760448814255 
! Port Impedance  257.955867757444 0                257.958421110596 0                

27.13            -0.00153811779090412 91.2317391937176 -34.5060734223014 -178.813309630346 -34.5060734223018 -178.813309630349 -0.00153811657228855 91.1416325762725 
! Gamma  !      0                437.005872422283 0                437.005904598637 
! Port Impedance  257.896533660179 0                257.89908642562  0                

27.139           -0.00159995754008732 90.7946658532209 -34.334643056286 -179.250271851542 -34.3346430562865 -179.250271851545 -0.00159995614428831 90.7047802768907 
! Gamma  !      0                437.251271806932 0                437.251303965227 
! Port Impedance  257.837299446932 0                257.839851625652 0                

27.148           -0.00166462426961003 90.3552570036073 -34.1623460903973 -179.689565583784 -34.1623460903977 -179.689565583787 -0.00166462269491543 90.2656004752752 
! Gamma  !      0                437.496614868701 0                437.496647008963 
! Port Impedance  257.778164870769 0                257.780716463755 0                

27.157           -0.00173226343471903 89.9134674306801 -33.9891724023969 179.868764077069 -33.9891724023973 179.868764077067 -0.00173226168005013 89.824048196979  
! Gamma  !      0                437.741901702294 0                437.741933824546 
! Port Impedance  257.719129685576 0                257.721680693813 0                

27.166           -0.00180302877676164 89.4692507376244 -33.8151116912308 179.424670856791 -33.8151116912311 179.424670856788 -0.00180302684167512 89.3800772932821 
! Gamma  !      0                437.987132402179 0                437.987164506446 
! Port Impedance  257.660193646056 0                257.662744070526 0                

27.175           -0.00187708284460671 89.0225593050266 -33.6401534728988 178.97810726297  -33.6401534728991 178.978107262967 -0.00187708072931199 88.9336404015508 
! Gamma  !      0                438.232307062592 0                438.232339148898 
! Port Impedance  257.601356507724 0                257.603906349407 0                

27.184           -0.00195459755229109 88.5733442492342 -33.464287076214 178.529024543546 -33.4642870762143 178.529024543544 -0.00195459525764649 88.4846889039505 
! Gamma  !      0                438.477425777537 0                438.477457845905 
! Port Impedance  257.542618026906 0                257.54516728678  0                

27.193           -0.00203575477551018 88.1215553789713 -33.2875016384473 178.077372643607 -33.2875016384475 178.077372643604 -0.00203575230303256 88.0331728844336 
! Gamma  !      0                438.722488640785 0                438.722520691241 
! Port Impedance  257.483977960735 0                257.486526639774 0                

27.202           -0.0021207469900193 87.6671411501247 -33.1097861008537 177.623100160358 -33.1097861008539 177.623100160356 -0.00212074434189372 87.5790410839133 
! Gamma  !      0                438.967495745877 0                438.967527778444 
! Port Impedance  257.425436067145 0                257.427984166323 0                

27.211           -0.00220977795506551 87.2100486186089 -32.9311292040797 177.166154296196 -32.9311292040798 177.166154296194 -0.00220977513413561 87.1222408535364 
! Gamma  !      0                439.212447186125 0                439.212479200827 
! Port Impedance  257.366992104871 0                257.369539625157 0                

27.22            -0.00230306344536037 86.7502233912131 -32.7515194834455 176.706480809757 -32.7515194834456 176.706480809754 -0.002303060455138 86.6627181059567 
! Gamma  !      0                439.457343054611 0                439.457375051472 
! Port Impedance  257.308645833443 0                257.311192775806 0                

27.229           -0.00240083203534437 86.2876095743277 -32.5709452641014 176.244023964863 -32.5709452641016 176.244023964861 -0.00240082888000097 86.2004172645096 
! Gamma  !      0                439.702183444187 0                439.702215423232 
! Port Impedance  257.250397013187 0                257.252943378592 0                

27.238           -0.00250332593977172 85.8221497204419 -32.3893946560541 175.778726477251 -32.3893946560542 175.778726477249 -0.00250332262414408 85.735281210178  
! Gamma  !      0                439.946968447481 0                439.947000408733 
! Port Impedance  257.192245405215 0                257.194791194625 0                

27.247           -0.00261080191510104 85.3537847722999 -32.20685554906  175.310529458969 -32.2068555490601 175.310529458966 -0.00261079844468749 85.2672512262414 
! Gamma  !      0                440.19169815689  0                440.191730100373 
! Port Impedance  257.134190771428 0                257.136735985803 0                

27.256           -0.00272353222642802 84.8824540045894 -32.0233156073828 174.839372360315 -32.0233156073828 174.839372360313 -0.00272352860737013 84.7962669404803 
! Gamma  !      0                440.436372664588 0                440.436404590325 
! Port Impedance  257.076232874508 0                257.078777514808 0                

27.265           -0.00284180568516099 84.4080949630393 -31.8387622644114 174.365192909207 -31.8387622644114 174.365192909205 -0.0028418019242455 84.3222662648162 
! Gamma  !      0                440.68099206252  0                440.681023970536 
! Port Impedance  257.018371477919 0                257.020915545099 0                

27.274           -0.00296592876311918 83.9306434007859 -31.6531827171364 173.887927047821 -31.6531827171364 173.887927047819 -0.00296592486776554 83.8451853322467 
! Gamma  !      0                440.925556442411 0                440.925588332729 
! Port Impedance  256.960606345899 0                256.963149840914 0                
