! Touchstone file from project Ka_PF
! Exported from HFSS 15.0.0
! Variables:
!  AA = 0.34in
!  BB = 0.145in
!  M01 = 0.1659in
!  M11 = 0.2126in
!  M12 = 0.1115in
!  M22 = 0.2362in
!  PL = 0.3in
!  RR = 0.035in
!  TT = 0.04in
!Data is not renormalized
# GHZ S DB
! Modal data exported
! Port[1] = 1:1
! Port[2] = 2:1
26.5             -0.000131761201032602 118.497359985961 -45.1800335284998 -151.512477223936 -45.1800335284969 -151.512477223966 -0.000131761201664246 118.477685566621 
! Gamma  !      -0               419.682065007056 -0               419.682062760293 
! Port Impedance  262.308116305091 0                262.307869329521 0                

26.509           -0.00013539364643113 118.157620105027 -45.0523074148512 -151.852321273047 -45.0523074148485 -151.852321273075 -0.000135393697842157 118.137737663481 
! Gamma  !      0                419.931657158111 0                419.931654912684 
! Port Impedance  262.241242673977 0                262.240995718117 0                

26.518           -0.000139194582105877 117.817142383009 -44.9241462446489 -152.192904257899 -44.9241462446464 -152.192904257925 -0.000139194677654902 117.797049670585 
! Gamma  !      0                420.181185725995 0                420.181183481901 
! Port Impedance  262.17448816328  0                262.174241227128 0                

26.527           -0.000143166665942764 117.47591671167  -44.795546473983 -152.534236308298 -44.7955464739807 -152.534236308322 -0.00014316679943103 117.455611442657 
! Gamma  !      0                420.430650823918 0                420.430648581156 
! Port Impedance  262.107852460039 0                262.107605543593 0                

26.536           -0.000147312824955268 117.133932810182 -44.6665045147348 -152.876327726863 -44.6665045147326 -152.876327726886 -0.00014731299059482 117.113412661025 
! Gamma  !      0                420.680052564795 0                420.680050323363 
! Port Impedance  262.041335252397 0                262.041088355655 0                

26.545           -0.000151636263313781 116.791180221329 -44.5370167338324 -153.219188992843 -44.5370167338304 -153.219188992864 -0.000151636455736149 116.770442829799 
! Gamma  !      0                420.929391061244 0                420.929388821139 
! Port Impedance  261.974936229603 0                261.974689352562 0                

26.554           -0.00015614047087077 116.447648307598 -44.4070794524902 -153.562830766037 -44.4070794524883 -153.562830766056 -0.000156140685094181 116.426691271949 
! Gamma  !      0                421.178666425586 0                421.178664186807 
! Port Impedance  261.908655082001 0                261.908408224658 0                

26.563           -0.000160829232120972 116.103326247175 -44.2766889454313 -153.907263890815 -44.2766889454295 -153.907263890834 -0.000160829463535883 116.082147125268 
! Gamma  !      0                421.42787876985  0                421.427876532395 
! Port Impedance  261.842491501026 0                261.84224466338  0                

26.572           -0.000165706635656439 115.758203029824 -44.1458414400947 -154.252499400263 -44.145841440093 -154.25249940028 -0.000165706880021681 115.736799338234 
! Gamma  !      0                421.677028205771 0                421.677025969638 
! Port Impedance  261.776445179202 0                261.77619836125  0                

26.581           -0.000170777084159829 115.412267452655 -44.0145331158244 -154.59854852042 -44.0145331158229 -154.598548520436 -0.000170777337581391 115.390636665756 
! Gamma  !      0                421.926114844792 0                421.92611260998  
! Port Impedance  261.710515810136 0                261.710269011874 0                

26.59            -0.000176045304923426 115.065508115779 -43.882760103042 -154.945422674654 -43.8827601030406 -154.945422674668 -0.000176045563837098 115.043647664796 
! Gamma  !      0                422.175138798066 0                422.175136564571 
! Port Impedance  261.644703088511 0                261.644456309937 0                

26.599           -0.00018151636095947 114.717913417837 -43.7505184824008 -155.293133488137 -43.7505184823994 -155.29313348815 -0.000181516622124093 114.695820689886 
! Gamma  !      0                422.424100176453 0                422.424097944275 
! Port Impedance  261.579006710083 0                261.578759951195 0                

26.608           -0.000187195662711465 114.36947155141  -43.6178042839215 -155.641692792465 -43.6178042839202 -155.641692792477 -0.000187195923185785 114.347143888497 
! Gamma  !      0                422.672999090528 0                422.672996859665 
! Port Impedance  261.513426371677 0                261.513179632472 0                

26.617           -0.000193088980401178 114.020170498298 -43.48461348611  -155.99111263039 -43.4846134861088 -155.991112630401 -0.000193089237538063 113.997605196304 
! Gamma  !      0                422.921835650575 0                422.921833421024 
! Port Impedance  261.447961771182 0                261.447715051656 0                

26.626           -0.000199202457064409 113.669998024666 -43.3509420150546 -156.341405260697 -43.3509420150535 -156.341405260707 -0.000199202708501205 113.647192332295 
! Gamma  !      0                423.170609966591 0                423.170607738351 
! Port Impedance  261.382612607543 0                261.382365907695 0                

26.635           -0.000205542622296746 113.318941676056 -43.2167857435046 -156.692583163207 -43.2167857435036 -156.692583163217 -0.00020554286593406 113.295892793761 
! Gamma  !      0                423.419322148289 0                423.419319921358 
! Port Impedance  261.317378580761 0                261.317131900594 0                

26.644           -0.000212116406746944 112.966988772252 -43.0821404899278 -157.044659043935 -43.0821404899269 -157.044659043945 -0.000212116640733217 112.943693851127 
! Gamma  !      0                423.667972305097 0                423.667970079473 
! Port Impedance  261.252259391886 0                261.25201273135  0                

26.653           -0.000218931157394597 112.614126402005 -42.9470020175475 -157.397645840384 -42.9470020175466 -157.397645840392 -0.000218931380128033 112.59058254265  
! Gamma  !      0                423.916560546155 0                423.916558321836 
! Port Impedance  261.187254743011 0                261.187008102158 0                

26.662           -0.000225994653697945 112.260341417604 -42.8113660333578 -157.751556726993 -42.811366033357 -157.751556727   -0.000225994863804329 112.236545668954 
! Gamma  !      0                424.165086980326 0                424.16508475731  
! Port Impedance  261.122364337271 0                261.122117716084 0                

26.671           -0.000233315124591603 111.905620429289 -42.6752281871178 -158.106405120747 -42.6752281871171 -158.106405120754 -0.000233315320910805 111.881569787414 
! Gamma  !      0                424.413551716185 0                424.413549494471 
! Port Impedance  261.057587878836 0                261.057341277308 0                

26.68            -0.000240901266445134 111.549949799501 -42.5385840703218 -158.462204686944 -42.5385840703211 -158.462204686951 -0.000240901448026281 111.525641206377 
! Gamma  !      0                424.661954862031 0                424.661952641617 
! Port Impedance  260.992925072905 0                260.992678491033 0                

26.689           -0.000248762261995029 111.193315636975 -42.4014292151477 -158.818969345133 -42.4014292151471 -158.818969345139 -0.000248762428079155 111.168745979206 
! Gamma  !      0                424.910296525881 0                424.910294306764 
! Port Impedance  260.928375625706 0                260.928129063485 0                

26.698           -0.000256907800318618 110.835703790643 -42.2637590933807 -159.17671327522 -42.2637590933801 -159.176713275226 -0.000256907950333836 110.810869898165 
! Gamma  !      0                425.158576815471 0                425.158574597651 
! Port Impedance  260.863939244486 0                260.863692701913 0                

26.707           -0.000265348097935749 110.477099843372 -42.1255691153136 -159.535450923764 -42.125569115313 -159.535450923769 -0.000265348231477967 110.451998488106 
! Gamma  !      0                425.406795838262 0                425.406793621736 
! Port Impedance  260.799615637512 0                260.799369114582 0                

26.716           -0.000274093921029623 110.117489105511 -41.9868546286204 -159.895197010448 -41.9868546286198 -159.895197010453 -0.000274094037859654 110.092116999986 
! Gamma  !      0                425.654953701436 0                425.654951486202 
! Port Impedance  260.735404514061 0                260.735158010771 0                

26.725           -0.00028315660895558 109.756856608246 -41.8476109172061 -160.255966534749 -41.8476109172056 -160.255966534753 -0.000283156708981778 109.731210404179 
! Gamma  !      0                425.903050511899 0                425.903048297956 
! Port Impedance  260.671305584419 0                260.671059100765 0                

26.734           -0.000292548099010881 109.395187096758 -41.7078332000288 -160.617774782805 -41.7078332000283 -160.617774782809 -0.000292548182287219 109.369263383593 
! Gamma  !      0                426.151086376282 0                426.151084163628 
! Port Impedance  260.607318559879 0                260.607072095855 0                

26.743           -0.00030228095260828 109.032465023169 -41.5675166298946 -160.980637334492 -41.5675166298941 -160.980637334495 -0.000302281019316989 109.006260326578 
! Gamma  !      0                426.399061400943 0                426.399059189576 
! Port Impedance  260.543443152728 0                260.543196708332 0                

26.752           -0.000312368382900685 108.668674539287 -41.4266562922249 -161.344570070706 -41.4266562922246 -161.344570070709 -0.000312368433339718 108.642185319623 
! Gamma  !      0                426.646975691965 0                426.646973481882 
! Port Impedance  260.479679076253 0                260.47943265148  0                

26.761           -0.000322824283940883 108.30379948912  -41.285247203796 -161.70958918088 -41.2852472037956 -161.709589180883 -0.000322824318534523 108.277022139824 
! Gamma  !      0                426.894829355158 0                426.894827146359 
! Port Impedance  260.416026044728 0                260.415779639574 0                

26.77            -0.00033366326151912 107.937823401161 -41.1432843114468 -162.075711170717 -41.1432843114464 -162.075711170719 -0.000333663280779408 107.910754247129 
! Gamma  !      0                427.142622496063 0                427.142620288546 
! Port Impedance  260.352483773417 0                260.352237387876 0                

26.779           -0.000344900665662229 107.570729480445 -41.0007624907588 -162.442952870167 -41.0007624907584 -162.442952870169 -0.000344900670200534 107.54336477634  
! Gamma  !      0                427.390355219949 0                427.390353013711 
! Port Impedance  260.289051978563 0                260.288805612632 0                

26.788           -0.000356552625038371 107.20250060035  -40.8576765447029 -162.811331441654 -40.8576765447026 -162.811331441656 -0.000356552615548035 107.174836528867 
! Gamma  !      0                427.638027631814 0                427.638025426854 
! Port Impedance  260.225730377389 0                260.225484031063 0                

26.797           -0.000368636083269419 106.83311929415  -40.7140212022563 -163.180864388553 -40.7140212022559 -163.180864388554 -0.000368636060519004 106.805151964231 
! Gamma  !      0                427.885639836391 0                427.885637632707 
! Port Impedance  260.16251868809  0                260.162272361364 0                

26.806           -0.000381168837306344 106.4625677463   -40.5697911169838 -163.551569563931 -40.5697911169835 -163.551569563933 -0.000381168802129992 106.434293191292 
! Gamma  !      0                428.133191938142 0                428.133189735733 
! Port Impedance  260.09941662983  0                260.099170322699 0                

26.815           -0.000394169577996964 106.090827783449 -40.4249808655885 -163.923465179572 -40.4249808655882 -163.923465179573 -0.000394169531288608 106.062241959208 
! Gamma  !      0                428.380684041264 0                428.380681840128 
! Port Impedance  260.036423922741 0                260.0361776352   0                

26.824           -0.000407657932970561 105.717880865168 -40.2795849464244 -164.296569815274 -40.279584946424 -164.296569815275 -0.000407657875674285 105.688979648109 
! Gamma  !      0                428.628116249688 0                428.628114049823 
! Port Impedance  259.973540287912 0                259.973294019957 0                

26.833           -0.000421654511969723 105.343708074382 -40.1335977779761 -164.670902428454 -40.1335977779757 -164.670902428455 -0.000421654445070115 105.314487259467 
! Gamma  !      0                428.875488667078 0                428.875486468483 
! Port Impedance  259.910765447391 0                259.910519199017 0                

26.842           -0.000436180954810844 104.968290107498 -39.9870136972999 -165.046482364055 -39.9870136972996 -165.046482364056 -0.000436180879328178 104.93874540616  
! Gamma  !      0                429.122801396837 0                429.12279919951  
! Port Impedance  259.848099124178 0                259.84785289538  0                

26.851           -0.000451259982076657 104.591607264215 -39.8398269584281 -165.42332936477 -39.8398269584278 -165.423329364771 -0.000451259899056285 104.561734302224 
! Gamma  !      0                429.370054542103 0                429.370052346043 
! Port Impedance  259.785541042222 0                259.785294832995 0                

26.86            -0.00046691544878401 104.213639436999 -39.6920317307336 -165.801463581599 -39.6920317307333 -165.801463581599 -0.000466915359293468 104.183433752259 
! Gamma  !      0                429.617248205752 0                429.617246010959 
! Port Impedance  259.723090926416 0                259.722844736754 0                

26.869           -0.000483172401146661 103.834366100224 -39.5436220972553 -166.180905584751 -39.543622097255 -166.180905584751 -0.00048317230625831 103.803823140503 
! Gamma  !      0                429.864382490399 0                429.864380296905 
! Port Impedance  259.660748502593 0                259.660502332491 0                

26.878           -0.000500057136643565 103.453766298949 -39.3945920529818 -166.561676374902 -39.3945920529816 -166.561676374903 -0.000500057037446167 103.422881419538 
! Gamma  !      0                430.111457498398 0                430.111455306106 
! Port Impedance  259.598513497521 0                259.598267346974 0                

26.887           -0.000517597267647509 103.071818637331 -39.244935503093 -166.943797394827 -39.2449355030927 -166.943797394827 -0.000517597165219221 103.040587098627 
! Gamma  !      0                430.358473331844 0                430.358471140818 
! Port Impedance  259.536385638902 0                259.536139507905 0                

26.896           -0.000535821788739723 102.68850126665  -39.0946462611581 -167.327290541408 -39.0946462611578 -167.327290541408 -0.000535821684152922 102.656918231669 
! Gamma  !      0                430.605430092572 0                430.605427902805 
! Port Impedance  259.474364655366 0                259.474118543913 0                

26.905           -0.000554761148035785 102.303791872935 -38.9437180472888 -167.712178178055 -38.9437180472885 -167.712178178056 -0.000554761042348388 102.271852404741 
! Gamma  !      0                430.852327882162 0                430.852325693651 
! Port Impedance  259.412450276466 0                259.412204184552 0                

26.914           -0.0005744473227334 101.917667664174 -38.7921444862465 -168.09848314754 -38.7921444862462 -168.09848314754 -0.000574447216983078 101.885366723231 
! Gamma  !      0                431.099166801934 0                431.099164614677 
! Port Impedance  259.350642232676 0                259.350396160294 0                

26.923           -0.000594913899151471 101.530105357098 -38.6399191055018 -168.486228785255 -38.6399191055015 -168.486228785255 -0.000594913794351792 101.497437798529 
! Gamma  !      0                431.345946952954 0                431.345944766949 
! Port Impedance  259.288940255385 0                259.288694202531 0                

26.932           -0.000616196157564691 101.141081163505 -38.4870353332453 -168.87543893294 -38.487035333245 -168.87543893294 -0.000616196054692582 101.108041734276 
! Gamma  !      0                431.592668436032 0                431.592666251277 
! Port Impedance  259.227344076896 0                259.227098043563 0                

26.941           -0.000638331162119535 100.750570776127 -38.3334864963484 -169.26613795286 -38.3334864963481 -169.26613795286 -0.000638331062111427 100.717154112127 
! Gamma  !      0                431.839331351724 0                431.839329168217 
! Port Impedance  259.165853430417 0                259.165607416601 0                

26.95            -0.000661357856171669 100.358549354002 -38.179265818272 -169.658350742482 -38.1792658182717 -169.658350742482 -0.000661357759931211 100.324749977037 
! Gamma  !      0                432.085935800331 0                432.08593361807  
! Port Impedance  259.104468050065 0                259.104222055759 0                

26.959           -0.000685317163424316 99.964991507346  -38.0243664169219 -170.052102749659 -38.0243664169215 -170.052102749659 -0.000685317071798263 99.9308038220309 
! Gamma  !      0                432.332481881904 0                432.332479700888 
! Port Impedance  259.043187670855 0                259.042941696052 0                

26.968           -0.000710252095179705 99.5698712818934 -37.8687813024498 -170.447419988343 -37.8687813024494 -170.447419988342 -0.000710252008964673 99.5352895724424 
! Gamma  !      0                432.57896969624  0                432.578967516467 
! Port Impedance  258.982012028697 0                258.981766073393 0                

26.977           -0.000736207864190374 99.1731621426904 -37.7125033749978 -170.84432905484 -37.7125033749974 -170.84432905484 -0.000736207784122229 99.1381805696023 
! Gamma  !      0                432.825399342886 0                432.825397164355 
! Port Impedance  258.920940860396 0                258.920694924584 0                

26.986           -0.000763232005444752 98.7748369573147 -37.5555254223843 -171.242857144658 -37.555525422384 -171.242857144658 -0.000763231932201503 98.7394495539477 
! Gamma  !      0                433.071770921141 0                433.071768743849 
! Port Impedance  258.859973903647 0                258.859727987321 0                

26.995           -0.0007913745044752 98.3748679785008 -37.3978401177308 -171.643032069933 -37.3978401177305 -171.643032069932 -0.00079137443866832 98.3390686475326 
! Gamma  !      0                433.31808453005  0                433.318082353996 
! Port Impedance  258.799110897028 0                258.798865000182 0                

27.004           -0.000820687933550151 97.9732268261419 -37.2394400170268 -172.044882277493 -37.2394400170264 -172.044882277493 -0.000820687875717826 97.9370093359118 
! Gamma  !      0                433.564340268414 0                433.564338093596 
! Port Impedance  258.738351579998 0                258.738105702626 0                

27.013           -0.000851227596389829 97.5698844686456 -37.0803175566308 -172.448436867566 -37.0803175566305 -172.448436867566 -0.000851227546996957 97.533242449372  
! Gamma  !      0                433.810538234785 0                433.810536061202 
! Port Impedance  258.677695692896 0                258.677449834991 0                

27.022           -0.000883051681926535 97.164811203613  -36.9204650507073 -172.853725613166 -36.920465050707 -172.853725613166 -0.000883051641366656 97.1277381434835 
! Gamma  !      0                434.056678527468 0                434.056676355117 
! Port Impedance  258.617142976933 0                258.616897138489 0                

27.031           -0.00091622142772416 96.7579766378132 -36.7598746885953 -173.260778980189 -36.759874688595 -173.260778980189 -0.000916221396303057 96.7204658789406 
! Gamma  !      0                434.302761244522 0                434.302759073402 
! Port Impedance  258.556693174192 0                258.556447355203 0                

27.04            -0.00095080129373732 96.3493496664234 -36.5985385321082 -173.669628148242 -36.5985385321078 -173.669628148242 -0.000950801271679772 96.3113944006632 
! Gamma  !      0                434.548786483761 0                434.548784313871 
! Port Impedance  258.49634602762  0                258.496100228079 0                

27.049           -0.00098685914709453 95.9388984515003 -36.4364485127624 -174.080305032248 -36.4364485127621 -174.080305032248 -0.000986859134541418 95.9004917161229 
! Gamma  !      0                434.794754342757 0                434.794752174094 
! Port Impedance  258.436101281029 0                258.43585550093  0                

27.058           -0.00102446645867777 95.5265903996505 -36.2735964289325 -174.492842304854 -36.2735964289321 -174.492842304854 -0.00102446645568318 95.4877250728642 
! Gamma  !      0                435.040664918835 0                435.040662751398 
! Port Impedance  258.375958679088 0                258.375712918425 0                

27.067           -0.00106369851232409 95.1123921388656 -36.1099739429308 -174.907273419672 -36.1099739429304 -174.907273419671 -0.00106369851884567 95.0730609351819 
! Gamma  !      0                435.286518309079 0                435.286516142867 
! Port Impedance  258.315917967325 0                258.31567222609  0                

27.076           -0.00110463462748852 94.6962694944809 -35.945572578009 -175.323632635406 -35.9455725780087 -175.323632635406 -0.00110463464340195 94.656464959918  
! Gamma  !      0                435.532314610333 0                435.532312445343 
! Port Impedance  258.255978892116 0                258.255733170303 0                

27.085           -0.00114735839637195 94.2781874642238 -35.7803837152804 -175.741955040893 -35.78038371528  -175.741955040893 -0.00114735842144874 94.2379019713392 
! Gamma  !      0                435.778053919196 0                435.778051755428 
! Port Impedance  258.196141200688 0                258.195895498289 0                

27.094           -0.00119195793645604 93.8581101923051 -35.6143985905582 -176.162276581096 -35.6143985905579 -176.162276581096 -0.00119195797038381 93.8173359350526 
! Gamma  !      0                436.023736332032 0                436.023734169483 
! Port Impedance  258.13640464111  0                258.13615895812  0                

27.103           -0.00123852615962391 93.4360009425146 -35.4476082911107 -176.584634084108 -35.4476082911104 -176.584634084108 -0.001238526201989 93.3947299309162 
! Gamma  !      0                436.269361944962 0                436.26935978363  
! Port Impedance  258.076768962295 0                258.076523298706 0                

27.112           -0.00128716105896281 93.0118220702713 -35.2800037523275 -177.009065289193 -35.2800037523272 -177.009065289192 -0.00128716110925994 92.9700461248981 
! Gamma  !      0                436.514930853868 0                436.514928693753 
! Port Impedance  258.017233913992 0                258.016988269798 0                

27.121           -0.00133796601456325 92.5855349935839 -35.1115757542966 -177.435608875933 -35.1115757542963 -177.435608875933 -0.00133796607219165 92.5432457398363 
! Gamma  !      0                436.760443154397 0                436.760440995496 
! Port Impedance  257.957799246783 0                257.957553621977 0                

27.13            -0.00139105011967308 92.1571001628666 -34.9423149182884 -177.864304494516 -34.9423149182881 -177.864304494516 -0.00139105018394037 92.1142890250459 
! Gamma  !      0                437.005898941958 0                437.00589678427  
! Port Impedance  257.898464712084 0                257.898219106658 0                

27.139           -0.00144652852867347 91.7264770295613 -34.7722117031447 -178.295192797223 -34.7722117031444 -178.295192797223 -0.00144652859878982 91.6831352247246 
! Gamma  !      0                437.251298311723 0                437.251296155245 
! Port Impedance  257.839230062134 0                257.838984476082 0                

27.148           -0.00150452282846665 91.2936240135066 -34.601256401569 -178.728315471173 -34.6012564015687 -178.728315471173 -0.00150452290354773 91.249742545094  
! Gamma  !      0                437.496641358629 0                437.49663920336  
! Port Impedance  257.780095049998 0                257.779849483312 0                

27.157           -0.00156516143497346 90.8584984689958 -34.4294391363165 -179.163715272389 -34.4294391363162 -179.163715272389 -0.00156516151405195 90.8140681202208 
! Gamma  !      0                437.741928177378 0                437.741926023318 
! Port Impedance  257.721059429562 0                257.720813882233 0                

27.166           -0.00162858001665007 90.4210566494597 -34.2567498562798 -179.601436061235 -34.2567498562795 -179.601436061234 -0.001628580098668 90.3760679764535 
! Gamma  !      0                437.98715886244  0                437.987156709585 
! Port Impedance  257.662122955513 0                257.661877427546 0                

27.175           -0.0016949219469251 89.9812536707111 -34.0831783324674 179.958477160697 -34.0831783324671 179.958477160697 -0.00169492203073283 89.9356969954079 
! Gamma  !      0                438.232333508049 0                438.232331356399 
! Port Impedance  257.603285383393 0                257.603039874765 0                

27.184           -0.00176433878780689 89.5390434726777 -33.9087141538728 179.515978212181 -33.9087141538725 179.515978212181 -0.00176433887217664 89.492908875431  
! Gamma  !      0                438.47745220821  0                438.477450057763 
! Port Impedance  257.544546469504 0                257.544300980213 0                

27.193           -0.00183699080693154 89.0943787795529 -33.7333467232304 179.07101969237  -33.7333467232301 179.07101969237  -0.00183699089056124 89.0476560914703 
! Gamma  !      0                438.722515056694 0                438.722512907449 
! Port Impedance  257.485905970983 0                257.485660501021 0                

27.202           -0.00191304753061928 88.6472110582837 -33.557065252655 178.623552939134 -33.5570652526547 178.623552939134 -0.00191304761212868 88.599889853268  
! Gamma  !      0                438.967522147043 0                438.967519998997 
! Port Impedance  257.427363645762 0                257.427118195123 0                

27.211           -0.00199268833561633 88.1974904753163 -33.3798587591618 178.173527985652 -33.3798587591615 178.173527985652 -0.00199268841355766 88.1495600617989 
! Gamma  !      0                439.212473572567 0                439.212471425718 
! Port Impedance  257.368919252574 0                257.36867382125  0                

27.22            -0.00207610308253851 87.7451658515109 -33.2017160600642 177.720893515164 -33.2017160600639 177.720893515164 -0.00207610315539543 87.696615263864  
! Gamma  !      0                439.457369426348 0                439.457367280696 
! Port Impedance  257.310572550949 0                257.310327138932 0                

27.229           -0.00216349279414538 87.2901846151338 -33.0226257682447 177.265596813797 -33.0226257682445 177.265596813797 -0.00216349286034656 87.2410026047469 
! Gamma  !      0                439.70220980124  0                439.702207656783 
! Port Impedance  257.252323301208 0                257.252077908491 0                

27.238           -0.00225507038195509 86.8324927528297 -32.8425762872972 176.807583721358 -32.8425762872969 176.807583721358 -0.00225507043988088 86.7826677788339 
! Gamma  !      0                439.946994789868 0                439.946992646605 
! Port Impedance  257.194171264465 0                257.19392589104  0                

27.247           -0.00235106142496261 86.3720347584731 -32.6615558065359 176.346798580002 -32.6615558065357 176.346798580002 -0.00235106147294124 86.3215549780987 
! Gamma  !      0                440.191724484632 0                440.19172234256  
! Port Impedance  257.136116202616 0                257.135870848476 0                

27.256           -0.00245170500446357 85.9087535797862 -32.4795522958684 175.883184180658 -32.479552295868 175.883184180658 -0.00245170504079618 85.8576068383345 
! Gamma  !      0                440.436398977704 0                440.436396836822 
! Port Impedance  257.078157878344 0                257.07791254348  0                

27.265           -0.00255725459948006 85.442590562612  -32.2965535005284 175.416681707099 -32.2965535005281 175.416681707099 -0.00255725462243974 85.3907643830244 
! Gamma  !      0                440.681018361031 0                440.681016221337 
! Port Impedance  257.020296055109 0                257.020050739515 0                

27.274           -0.00266797904753844 84.973485392717  -32.1125469356665 174.947230677534 -32.1125469356663 174.947230677535 -0.00266797905537311 84.9209669647218 
! Gamma  !      0                440.925582726335 0                440.925580587828 
! Port Impedance  256.96253049715  0                256.962285200817 0                
