! Touchstone file from project Ka_PF
! Exported from HFSS 15.0.0
! Variables:
!  AA = 0.34in
!  BB = 0.145in
!  M01 = 0.1649in
!  M11 = 0.2151in
!  M12 = 0.1073in
!  M22 = 0.2385in
!  PL = 0.3in
!  RR = 0.035in
!  TT = 0.04in
!Data is not renormalized
# GHZ S DB
! Modal data exported
! Port[1] = 1:1
! Port[2] = 2:1
26.5             -7.33888703434218E-005 119.228433424366 -47.7215774828098 -150.749729948551 -47.7215774828082 -150.749729948557 -7.33888754572936E-005 119.272106679675 
! Gamma  !      -0               419.682061644267 -0               419.682059588134 
! Port Impedance  262.306700357186 0                262.306930402304 0                

26.509           -7.14188031420986E-005 118.889827634519 -47.5928607463017 -151.088309199907 -47.5928607463001 -151.088309199914 -7.14066998003791E-005 118.933554013831 
! Gamma  !      0                419.931653797321 0                419.93165174241  
! Port Impedance  262.239827039309 0                262.240057043122 0                

26.518           -6.97843966655252E-005 118.550484753331 -47.4637054728506 -151.427625428441 -47.463705472849 -151.427625428448 -6.9760888435365E-005 118.594264202737 
! Gamma  !      0                420.1811823672   0                420.18118031351  
! Port Impedance  262.173072841328 0                262.173302803895 0                

26.527           -6.84804860599597E-005 118.210394681051 -47.3341081171457 -151.767688748396 -47.3341081171442 -151.767688748404 -6.84462579539653E-005 118.254227141811 
! Gamma  !      0                420.430647467117 0                420.430645414645 
! Port Impedance  262.106437450282 0                262.106667371664 0                

26.536           -6.75021464857098E-005 117.86954714623  -47.204065090546 -152.108509445384 -47.2040650905446 -152.108509445392 -6.74578651916495E-005 117.913432554623 
! Gamma  !      0                420.680049209984 0                420.680047158729 
! Port Impedance  262.039920554317 0                262.040150434575 0                

26.545           -6.68446974169898E-005 117.527931702006 -47.0735727603705 -152.450097980107 -47.073572760369 -152.450097980115 -6.67910115178441E-005 117.571869989172 
! Gamma  !      0                420.929387708419 0                420.929385658379 
! Port Impedance  261.973521842682 0                261.973751681874 0                

26.554           -6.65037071685573E-005 117.185537722285 -46.9426274491736 -152.792464992184 -46.9426274491723 -152.792464992192 -6.64412473741292E-005 117.229528814064 
! Gamma  !      0                421.178663074746 0                421.178661025919 
! Port Impedance  261.907241005721 0                261.907470803909 0                

26.563           -6.64749977147024E-005 116.842354397821 -46.8112254340071 -153.135621304079 -46.8112254340057 -153.135621304089 -6.64043770816444E-005 116.886398214587 
! Gamma  !      0                421.427875420992 0                421.427873373376 
! Port Impedance  261.841077734873 0                261.841307492116 0                

26.572           -6.67546497755157E-005 116.498370732195 -46.679362945665 -153.479577925133 -46.6793629456636 -153.479577925143 -6.66764639350609E-005 116.542467188686 
! Gamma  !      0                421.677024858891 0                421.677022812486 
! Port Impedance  261.775031722663 0                261.775261439019 0                

26.581           -6.73390082041873E-005 116.153575537684 -46.5470361679143 -153.824346055697 -46.547036167913 -153.824346055707 -6.72538355831194E-005 116.197724542824 
! Gamma  !      0                421.926111499889 0                421.926109454692 
! Port Impedance  261.709102662696 0                261.709332338227 0                

26.59            -6.82246877052293E-005 115.807957431017 -46.4142412367095 -154.16993709139 -46.4142412367082 -154.169937091401 -6.81330897410579E-005 115.852158887735 
! Gamma  !      0                422.175135455135 0                422.175133411144 
! Port Impedance  261.64329024966  0                261.643519884424 0                

26.599           -6.94085788546945E-005 115.461504829022 -46.2809742393908 -154.516362627457 -46.2809742393895 -154.516362627468 -6.93111002233561E-005 115.505758634062 
! Gamma  !      0                422.424096835493 0                422.424094792707 
! Port Impedance  261.57759417931  0                261.577823773367 0                

26.608           -7.08878544985723E-005 115.11420594415  -46.1472312138654 -154.863634463258 -46.1472312138642 -154.863634463269 -7.07850233305519E-005 115.158511987876 
! Gamma  !      0                422.672995751535 0                422.672993709952 
! Port Impedance  261.512014148474 0                261.512243701882 0                

26.617           -7.26599764994706E-005 114.766048779876 -46.0130081477721 -155.211764606867 -46.0130081477709 -155.211764606879 -7.25523045968782E-005 114.810406946071 
! Gamma  !      0                422.921832313546 0                422.921830273165 
! Port Impedance  261.446549855039 0                261.446779367859 0                

26.626           -7.472270288848E-005 114.417021125977 -45.8783009776281 -155.560765279814 -45.8783009776269 -155.560765279825 -7.46106859421199E-005 114.461431291636 
! Gamma  !      0                423.170606631525 0                423.170604592342 
! Port Impedance  261.381200997955 0                261.381430470244 0                

26.635           -7.70740954145096E-005 114.06711055368  -45.7431055879578 -155.910648921932 -45.7431055879566 -155.910648921943 -7.69582132161206E-005 114.111572588797 
! Gamma  !      0                423.419318815182 0                423.419316777197 
! Port Impedance  261.315967277222 0                261.31619670904  0                

26.644           -7.97125275354558E-005 113.716304410674 -45.6074178104035 -156.261428196369 -45.6074178104023 -156.261428196381 -7.95932441995871E-005 113.760818178017 
! Gamma  !      0                423.667968973945 0                423.667966937157 
! Port Impedance  261.250848393892 0                261.251077785297 0                

26.653           -8.26366928627807E-005 113.364589815983 -45.471233422817 -156.613115994713 -45.4712334228158 -156.613115994725 -8.25144570322686E-005 113.409155170867 
! Gamma  !      0                423.916557216957 0                423.916555181363 
! Port Impedance  261.185844050059 0                261.18607340111  0                

26.662           -8.58456140971143E-005 113.011953654697 -45.3345481483321 -156.965725442274 -45.334548148331 -156.965725442285 -8.57208591591592E-005 113.056570444746 
! Gamma  !      0                424.165083653078 0                424.165081618677 
! Port Impedance  261.120953948859 0                261.121183259615 0                

26.671           -8.93386524568137E-005 112.658382572554 -45.1973576544169 -157.319269903509 -45.1973576544158 -157.31926990352 -8.92117967542301E-005 112.70305063746  
! Gamma  !      0                424.413548390886 0                424.413546357676 
! Port Impedance  261.056177794463 0                261.056407064981 0                

26.68            -9.31155176737402E-005 112.30386297037  -45.0596575519063 -157.673762987603 -45.0596575519052 -157.673762987615 -9.29869647084867E-005 112.348582141637 
! Gamma  !      0                424.661951538677 0                424.661949506656 
! Port Impedance  260.991515292072 0                260.991744522412 0                

26.689           -9.71762785186532E-005 111.94838099831  -44.921443394013 -158.029218554211 -44.9214433940119 -158.029218554223 -9.7046417172715E-005 111.993151098996 
! Gamma  !      0                424.910293204469 0                424.910291173636 
! Port Impedance  260.926966147915 0                260.927195338133 0                

26.698           -0.000101521373978699 111.591922549998 -44.782710675318 -158.385650719349 -44.782710675317 -158.38565071936 -0.000101390578711822 111.636743394441 
! Gamma  !      0                425.158573495999 0                425.158571466352 
! Port Impedance  260.86253006924  0                260.862759219396 0                

26.707           -0.000106151625024322 111.234473256455 -44.6434548307386 -158.743073861474 -44.6434548307375 -158.743073861486 -0.000106020256084278 111.279344649999 
! Gamma  !      0                425.406792520727 0                425.406790492264 
! Port Impedance  260.798206764314 0                260.798435874465 0                

26.716           -0.000111068247083264 110.876018479863 -44.5036712344739 -159.101502627723 -44.5036712344728 -159.101502627735 -0.000110936650707432 110.920940218566 
! Gamma  !      0                425.654950385835 0                425.654948358554 
! Port Impedance  260.733995942417 0                260.734225012621 0                

26.725           -0.000116272863195612 110.516543307152 -44.3633551989277 -159.460951940344 -44.3633551989266 -159.460951940355 -0.000116141371821239 110.561515177492 
! Gamma  !      0                425.903047198229 0                425.90304517213  
! Port Impedance  260.669897313837 0                260.670126344151 0                

26.734           -0.000121767517960831 110.156032543396 -44.2225019736076 -159.821437003298 -44.2225019736065 -159.82143700331 -0.000121636450418889 110.201054321959 
! Gamma  !      0                426.151083064542 0                426.151081039622 
! Port Impedance  260.605910589864 0                260.606139580346 0                

26.743           -0.000127554692233375 109.794470705021 -44.0811067439996 -160.182973309076 -44.0811067439986 -160.182973309087 -0.000127424353968456 109.839542158184 
! Gamma  !      0                426.399058091129 0                426.399056067386 
! Port Impedance  260.542035482791 0                260.542264433498 0                

26.752           -0.000133637318708675 109.431842012806 -43.9391646304183 -160.545576645697 -43.9391646304173 -160.545576645708 -0.000133508001954522 109.476962896409 
! Gamma  !      0                426.646972384073 0                426.646970361507 
! Port Impedance  260.478271705903 0                260.478500616893 0                

26.761           -0.000140018798359005 109.068130384686 -43.7966706868312 -160.90926310392 -43.7966706868302 -160.909263103931 -0.00013989078236033 109.113300443689 
! Gamma  !      0                426.894826049187 0                426.894824027795 
! Port Impedance  260.414618973477 0                260.414847844807 0                

26.77            -0.000146703017847511 108.703319428334 -43.6536198996573 -161.274049084673 -43.6536198996563 -161.274049084683 -0.000146576569048057 108.748538396467 
! Gamma  !      0                427.14261919201  0                427.142617171791 
! Port Impedance  260.351077000776 0                260.351305832503 0                

26.779           -0.000153694367923326 108.33739243353  -43.5100071865383 -161.639951306695 -43.5100071865373 -161.639951306705 -0.000153569740164531 108.382660032926 
! Gamma  !      0                427.390351917811 0                427.390349898762 
! Port Impedance  260.287645504047 0                260.287874296228 0                

26.788           -0.000160997762875893 107.970332364288 -43.3658273950827 -162.006986814417 -43.3658273950817 -162.006986814428 -0.000160875197593631 108.015648305109 
! Gamma  !      0                427.638024331589 0                427.63802231371  
! Port Impedance  260.224324200511 0                260.224552953203 0                

26.797           -0.000168618661125687 107.602121850761 -43.2210753015815 -162.375172986074 -43.2210753015806 -162.375172986085 -0.000168498387547 107.647485830805 
! Gamma  !      0                427.885636538076 0                427.885634521365 
! Port Impedance  260.161112808366 0                260.161341521626 0                

26.806           -0.000176563086984157 107.23274318089  -43.0757456096949 -162.744527542064 -43.0757456096939 -162.744527542074 -0.000176445322321097 107.278154885188 
! Gamma  !      0                428.133188641734 0                428.133186626189 
! Port Impedance  260.098011046778 0                260.098239720663 0                

26.815           -0.000184837653703451 106.862178291801 -42.9298329491091 -163.115068553563 -42.9298329491082 -163.115068553573 -0.000184722603344988 106.9076373922   
! Gamma  !      0                428.380680746761 0                428.38067873238  
! Port Impedance  260.035018635878 0                260.035247270444 0                

26.824           -0.000193449587829487 106.490408760942 -42.783331874163 -163.4868144514  -42.7833318741621 -163.48681445141 -0.000193337445536311 106.535914915672 
! Gamma  !      0                428.628112957086 0                428.628110943869 
! Port Impedance  259.972135296758 0                259.972363892061 0                

26.833           -0.00020240675499919 106.117415796942 -42.6362368624429 -163.859784035212 -42.6362368624419 -163.859784035222 -0.000202297703090796 106.162968650168 
! Gamma  !      0                428.875485376376 0                428.87548336432  
! Port Impedance  259.909360751466 0                259.909589307563 0                

26.842           -0.000211717687233066 105.743180230189 -42.4885423133454 -164.233996482877 -42.4885423133445 -164.233996482887 -0.000211611896780622 105.788779411547 
! Gamma  !      0                429.122798108032 0                429.122796097135 
! Port Impedance  259.846694723004 0                259.846923239951 0                

26.851           -0.000221391611824414 105.367682503117 -42.3402425466077 -164.609471360242 -42.3402425466069 -164.609471360251 -0.000221289242836884 105.413327627237 
! Gamma  !      0                429.370051255192 0                429.370049245453 
! Port Impedance  259.784136935322 0                259.784365413174 0                

26.86            -0.000231438481924579 104.990902660185 -42.1913318008026 -164.986228631155 -42.1913318008018 -164.986228631164 -0.000231339683537729 105.036593326189 
! Gamma  !      0                429.617244920732 0                429.617242912149 
! Port Impedance  259.721687113312 0                259.721915552127 0                

26.869           -0.000241869008921689 104.61282033754  -42.0418042318001 -165.364288667813 -42.0418042317993 -165.364288667822 -0.000241773919588066 104.658556128533 
! Gamma  !      0                429.864379207268 0                429.86437719984  
! Port Impedance  259.65934498281  0                259.659573382643 0                

26.878           -0.000252694696752807 104.233414752362 -41.8916539111928 -165.74367226144 -41.891653911192 -165.743672261448 -0.000252603444423031 104.279195234895 
! Gamma  !      0                430.111454217153 0                430.111452210878 
! Port Impedance  259.597110270586 0                259.597338631493 0                

26.887           -0.000263927878209343 103.852664691855 -41.7408748246841 -166.124400633299 -41.7408748246832 -166.124400633308 -0.000263840580519188 103.898489415374 
! Gamma  !      0                430.358470052482 0                430.358468047359 
! Port Impedance  259.534982704342 0                259.535211026378 0                

26.896           -0.000275581753446062 103.470548501899 -41.5894608704392 -166.506495446064 -41.5894608704384 -166.506495446073 -0.000275498517891964 103.516416998173 
! Gamma  !      0                430.605426815092 0                430.605424811119 
! Port Impedance  259.472962012709 0                259.47319029593  0                

26.905           -0.000287670430728499 103.087044075326 -41.4374058573974 -166.889978815551 -41.4374058573967 -166.88997881556 -0.000287591354865243 103.132955857855 
! Gamma  !      0                430.85232460656  0                430.852322603735 
! Port Impedance  259.411047925241 0                259.411276169703 0                

26.914           -0.000300208969678298 102.702128839829 -41.2847035035443 -167.274873322831 -41.2847035035435 -167.27487332284 -0.000300134141287775 102.748083403229 
! Gamma  !      0                431.099163528208 0                431.09916152653  
! Port Impedance  259.349240172413 0                259.349468378171 0                

26.923           -0.000313213427064822 102.315779745461 -41.1313474341431 -167.661202026741 -41.1313474341423 -167.661202026749 -0.000313142924345036 102.361776564828 
! Gamma  !      0                431.345943681101 0                431.345941680568 
! Port Impedance  259.287538485616 0                259.287766652725 0                

26.932           -0.000326700905382321 101.927973251743 -40.9773311799248 -168.048988476797 -40.977331179924 -168.048988476805 -0.000326634797115184 101.97401178199  
! Gamma  !      0                431.592665166049 0                431.59266316666  
! Port Impedance  259.225942597153 0                259.226170725668 0                

26.941           -0.000340689604348794 101.538685314331 -40.822648175234 -168.438256726541 -40.8226481752333 -168.438256726548 -0.000340627950092985 101.584764989506 
! Gamma  !      0                431.839328083609 0                431.839326085362 
! Port Impedance  259.164452240235 0                259.164680330211 0                

26.95            -0.000355198875541743 101.147891371249 -40.6672917561318 -168.829031347322 -40.6672917561311 -168.829031347329 -0.000355141725800504 101.194011603828 
! Gamma  !      0                432.085932534081 0                432.085930536975 
! Port Impedance  259.103067148978 0                259.10329520047  0                

26.959           -0.000370249280351358 100.755566328667 -40.5112551584522 -169.221337442544 -40.5112551584515 -169.221337442551 -0.00037019667674993 100.801726508815 
! Gamma  !      0                432.332478617517 0                432.332476621549 
! Port Impedance  259.041787058398 0                259.042015071461 0                

26.968           -0.00038586265148567 100.361684546194 -40.3545315158119 -169.615200662382 -40.3545315158112 -169.615200662389 -0.000385814626950653 100.407884041003 
! Gamma  !      0                432.578966433713 0                432.578964438883 
! Port Impedance  258.980611704408 0                258.980839679096 0                

26.977           -0.000402062158245829 99.9662198216809 -40.1971138575733 -170.010647219004 -40.1971138575726 -170.01064721901 -0.000402018737179727 100.012457974379 
! Gamma  !      0                432.825396082217 0                432.825394088523 
! Port Impedance  258.919540823813 0                258.919768760182 0                

26.986           -0.000418872375835057 99.5691453755059 -40.0389951067566 -170.4077039023  -40.0389951067559 -170.407703902306 -0.000418833574278281 99.6154215046336 
! Gamma  !      0                433.071767662327 0                433.071765669766 
! Port Impedance  258.858574154309 0                258.858802052412 0                

26.995           -0.000436319358943582 99.1704338343238 -39.8801680779024 -170.806398096157 -39.8801680779017 -170.806398096163 -0.000436285184763459 99.2167472328853 
! Gamma  !      0                433.318081273089 0                433.318079281661 
! Port Impedance  258.797711434474 0                258.797939294366 0                

27.004           -0.000454430719922339 98.7700572142581 -39.7206254748818 -171.206757795283 -39.7206254748812 -171.206757795289 -0.000454401172978972 98.8164071488352 
! Gamma  !      0                433.564337013303 0                433.564335023006 
! Port Impedance  258.73695240377  0                258.737180225506 0                

27.013           -0.000473235711840859 98.3679869035126 -39.5603598886537 -171.60881162262 -39.560359888653 -171.608811622626 -0.000473210784152989 98.4143726133475 
! Gamma  !      0                433.810534981521 0                433.810532992354 
! Port Impedance  258.676296802536 0                258.676524586169 0                

27.022           -0.000492765316732559 97.9641936443781 -39.3993637949659 -172.012588847357 -39.3993637949652 -172.012588847363 -0.000492744992652107 98.0106143404207 
! Gamma  !      0                434.056675276049 0                434.05667328801  
! Port Impedance  258.615744371985 0                258.61597211757  0                

27.031           -0.000513052339419374 97.5586475146116 -39.2376295520016 -172.418119403574 -39.2376295520009 -172.418119403579 -0.000513036595802125 97.6051023785301 
! Gamma  !      0                434.302757994946 0                434.302756008033 
! Port Impedance  258.5552948542   0                258.55552256179  0                

27.04            -0.000534131507271116 97.1513179081594 -39.0751493979668 -172.82543390954 -39.0751493979662 -172.825433909545 -0.000534120313638719 97.1978060913135 
! Gamma  !      0                434.548783236025 0                434.548781250237 
! Port Impedance  258.494947992129 0                258.495175661779 0                

27.049           -0.000556039576294485 96.7421735151982 -38.9119154486186 -173.234563687698 -38.911915448618 -173.234563687703 -0.000556032895007066 96.788694137572  
! Gamma  !      0                434.794751096858 0                434.794749112193 
! Port Impedance  258.434703529586 0                258.434931161349 0                

27.058           -0.000578815444017182 96.3311823014659 -38.7479196947322 -173.645540785362 -38.7479196947316 -173.645540785367 -0.000578813230437271 96.3777344505601 
! Gamma  !      0                435.040661674771 0                435.040659691228 
! Port Impedance  258.374561211241 0                258.374788805171 0                

27.067           -0.000602500269576644 95.9183114868516 -38.5831539995056 -174.058397996145 -38.583153999505 -174.058397996149 -0.000602502472245648 95.9648942165321 
! Gamma  !      0                435.286515066847 0                435.286513084425 
! Port Impedance  258.314520782622 0                258.314748338772 0                

27.076           -0.000627137601616896 95.503527523213  -38.4176100958995 -174.473168882175 -38.4176100958989 -174.473168882179 -0.000627144162394908 95.5501398525146 
! Gamma  !      0                435.532311369931 0                435.532309388627 
! Port Impedance  258.254581990106 0                258.254809508531 0                

27.085           -0.000652773514385844 95.0867960713897 -38.2512795839109 -174.889887797106 -38.2512795839103 -174.88988779711 -0.00065278436864258 95.1334369832732 
! Gamma  !      0                435.778050680622 0                435.778048700436 
! Port Impedance  258.194744580922 0                258.194972061674 0                

27.094           -0.00067945675276784 94.6680819773764 -38.0841539277791 -175.308589909974 -38.0841539277785 -175.308589909978 -0.000679471829534988 94.7147504174362 
! Gamma  !      0                436.023733095283 0                436.023731116212 
! Port Impedance  258.13500830314  0                258.135235746272 0                

27.103           -0.000707238886753993 94.2473492476206 -37.916224453122 -175.72931122993 -37.9162244531214 -175.729311229934 -0.000707258108886244 94.2940441227411 
! Gamma  !      0                436.269358710034 0                436.269356732078 
! Port Impedance  258.075372905674 0                258.075600311239 0                

27.112           -0.000736174476084318 93.824561023406  -37.7474823439998 -176.152088631888 -37.7474823439992 -176.152088631891 -0.000736197760423286 93.871281200365  
! Gamma  !      0                436.514927620761 0                436.514925643918 
! Port Impedance  258.015838138273 0                258.016065506325 0                

27.121           -0.000766321245772754 93.3996795542829 -37.5779186399066 -176.576959883121 -37.577918639906 -176.576959883124 -0.000766348503311859 93.4464238582987 
! Gamma  !      0                436.760439923108 0                436.760437947375 
! Port Impedance  257.956403751522 0                257.956631082114 0                

27.13            -0.00079774027326969 92.9726661705014 -37.4075242326847 -177.003963670871 -37.4075242326842 -177.003963670873 -0.000797771409309394 93.0194333837217 
! Gamma  !      0                437.005895712483 0                437.005893737861 
! Port Impedance  257.897069496836 0                257.89729679002  0                

27.139           -0.000830496188132487 92.5434812544066 -37.2362898633634 -177.433139630977 -37.2362898633629 -177.43313963098 -0.000830531102441312 92.590270114336  
! Gamma  !      0                437.251295084061 0                437.251293110546 
! Port Impedance  257.837835126456 0                257.838062382285 0                

27.148           -0.000864657385078566 92.1120842107454 -37.0642061189163 -177.864528377615 -37.0642061189158 -177.864528377618 -0.000864695972065683 92.15889340861   
! Gamma  !      0                437.496638132776 0                437.496636160369 
! Port Impedance  257.778700393447 0                257.778927611974 0                

27.157           -0.000900296251422172 91.6784334358398 -36.8912634289383 -178.298171534154 -36.8912634289378 -178.298171534157 -0.000900338400275265 91.7252616148843 
! Gamma  !      0                437.741924953333 0                437.741922982031 
! Port Impedance  257.719665051696 0                257.719892232973 0                

27.166           -0.000937489409903887 91.2424862855727 -36.7174520622383 -178.734111765214 -36.7174520622378 -178.734111765216 -0.000937535004764626 91.2893320392882 
! Gamma  !      0                437.9871556402   0                437.987153670002 
! Port Impedance  257.660728855903 0                257.660955999983 0                

27.175           -0.000976317978095838 90.8041990421337 -36.5427621233461 -179.172392809955 -36.5427621233456 -179.172392809958 -0.00097636689821509 90.8510609124123 
! Gamma  !      0                438.232330287613 0                438.232328318516 
! Port Impedance  257.601891561585 0                257.602118668519 0                

27.184           -0.00101686784556585 90.3635268794677 -36.3671835489311 -179.613059516681 -36.3671835489307 -179.613059516683 -0.00101691996545696 90.4104033546811 
! Gamma  !      0                438.477448989574 0                438.477447021578 
! Port Impedance  257.543152925065 0                257.543379994907 0                

27.193           -0.00105922997013654 89.9204238273666 -36.1907061041314 179.943842121219 -36.1907061041309 179.943842121217 -0.00105928515973439 89.9673133403647 
! Gamma  !      0                438.722511839856 0                438.72250987296  
! Port Impedance  257.484512703475 0                257.484739736276 0                

27.202           -0.00110350069465768 89.474842734141  -36.013319378789 179.498264927891 -36.0133193787885 179.498264927889 -0.00110355881947389 89.5217436601663 
! Gamma  !      0                438.967518932    0                438.967516966201 
! Port Impedance  257.42597065475  0                257.426197650562 0                

27.211           -0.0011497820858486 89.0267352278046 -35.8350127835917 179.050160506152 -35.8350127835912 179.050160506151 -0.00114984300714406 89.0736458823205 
! Gamma  !      0                439.212470359317 0                439.212468394615 
! Port Impedance  257.367526537623 0                257.367753496499 0                

27.22            -0.00119818229688063 88.5760516757042 -35.6557755461171 178.599479197072 -35.6557755461166 178.59947919707  -0.00119824587180139 88.6229703121301 
! Gamma  !      0                439.457366214889 0                439.457364251281 
! Port Impedance  257.309180111624 0                257.309407033615 0                

27.229           -0.00124881595545804 88.122741142518  -35.4755967067773 178.146170037919 -35.4755967067769 178.146170037917 -0.00124888203720399 88.1696659498691 
! Gamma  !      0                439.702206591569 0                439.702204629055 
! Port Impedance  257.250931137077 0                257.251158022235 0                

27.238           -0.00130180457941883 87.6667513465464 -35.2944651146619 177.690180718395 -35.2944651146614 177.690180718394 -0.00130187301739498 87.7136804469728 
! Gamma  !      0                439.946991581983 0                439.946989620561 
! Port Impedance  257.192779375095 0                257.193006223471 0                

27.247           -0.00135727702190355 87.2080286142145 -35.1123694232772 177.231457535083 -35.1123694232768 177.231457535082 -0.00135734766188384 87.2549600604351 
! Gamma  !      0                440.191721278531 0                440.191719318199 
! Port Impedance  257.134724587577 0                257.134951399223 0                

27.256           -0.00141536994842654 86.7465178326967 -34.9292980861791 176.769945344011 -34.9292980861787 176.76994534401  -0.00141544263270516 86.7934496053216 
! Gamma  !      0                440.436395773384 0                440.436393814141 
! Port Impedance  257.076766537204 0                257.076993312172 0                

27.265           -0.00147622834831735 86.2821624005744 -34.7452393524967 176.305587511247 -34.7452393524963 176.305587511246 -0.00147630291586379 86.3290924053125 
! Gamma  !      0                440.681015158489 0                440.681013200334 
! Port Impedance  257.01890498744  0                257.019131725781 0                

27.274           -0.00154000608320128 85.81490417643   -34.560181262346 175.838325861426 -34.5601812623457 175.838325861425 -0.00154008236982221 85.8618302411742 
! Gamma  !      0                440.92557952557  0                440.925577568501 
! Port Impedance  256.961139702524 0                256.961366404288 0                
