! Touchstone file from project Ka_PF
! Exported from HFSS 15.0.0
! Variables:
!  AA = 0.34in
!  BB = 0.145in
!  M01 = 0.1627in
!  M11 = 0.2153in
!  M12 = 0.1023in
!  M22 = 0.2389in
!  PL = 0.3in
!  RR = 0.035in
!  TT = 0.04in
!Data is not renormalized
# GHZ S DB
! Modal data exported
! Port[1] = 1:1
! Port[2] = 2:1
26.5             -2.10601800849569E-005 123.01977208641  -53.1432328075102 32.9880396216052 -53.1432328075117 32.9880396216023 -2.10601806799484E-005 122.956307156316 
! Gamma  !      -0               419.682063865466 -0               419.682050969634 
! Port Impedance  262.306403553595 0                262.307135508943 0                

26.509           -1.91058290168984E-005 122.700121548618 -53.0222508170514 32.6678481586775 -53.0222508170531 32.6678481586738 -1.90498352494617E-005 122.636645703186 
! Gamma  !      0                419.931656017199 0                419.931643129033 
! Port Impedance  262.239530320895 0                262.240262079594 0                

26.518           -1.70584669466074E-005 122.379910610395 -52.900891179263 32.3471169922272 -52.9008911792646 32.3471169922226 -1.69477429529485E-005 122.316425291682 
! Gamma  !      0                420.18118458576  0                420.181171705248 
! Port Impedance  262.172776207933 0                262.173507770341 0                

26.527           -1.49259027646523E-005 122.059132612744 -52.7791510683415 32.0258390933924 -52.7791510683435 32.0258390933881 -1.47617052717653E-005 121.995639291455 
! Gamma  !      0                420.43064968436  0                420.430636811491 
! Port Impedance  262.106140901747 0                262.10687226822  0                

26.536           -1.27158512786037E-005 121.7377807858   -52.6570276269581 31.7040073267212 -52.6570276269602 31.7040073267164 -1.24994295982264E-005 121.674280961871 
! Gamma  !      0                420.680051425913 0                420.680038560675 
! Port Impedance  262.039624090484 0                262.040355261379 0                

26.545           -1.04359344496601E-005 121.415848246702 -52.5345179657821 31.381614448039  -52.5345179657844 31.3816144480329 -1.01685304577793E-005 121.352343449898 
! Gamma  !      0                420.929389923036 0                420.929377065419 
! Port Impedance  261.973225463393 0                261.973956439065 0                

26.554           -8.09368269492698E-006 121.09332799742  -52.4116191629964 31.0586531022562 -52.4116191629987 31.0586531022499 -7.77653081804859E-006 121.029819787944 
! Gamma  !      0                421.178665288052 0                421.178652438044 
! Port Impedance  261.906944710819 0                261.907675491623 0                

26.563           -5.69653624087996E-006 120.770212922522 -52.288328263803 30.7351158211277 -52.2883282638056 30.7351158211215 -5.3308634384558E-006 120.706702891643 
! Gamma  !      0                421.427877632989 0                421.42786479058  
! Port Impedance  261.840781524202 0                261.841512110489 0                

26.572           -3.25184653186699E-006 120.446495786898 -52.1646422799208 30.4109950209623 -52.1646422799235 30.4109950209559 -2.83887227969931E-006 120.382985557597 
! Gamma  !      0                421.677027069581 0                421.677014234761 
! Port Impedance  261.774735596065 0                261.775465988189 0                

26.581           -7.66877705218132E-007 120.12216923342  -52.0405581890719 30.086283000269  -52.0405581890747 30.0862830002626 -3.07813982734738E-007 120.058660461044 
! Gamma  !      0                421.926113709273 0                421.92610088203  
! Port Impedance  261.708806620016 0                261.709536818328 0                

26.59            1.75119185257501E-006 119.79722578055  -51.9160729344593 29.7609719373539 -51.9160729344622 29.7609719373469 2.25514059142636E-006 119.733720153492 
! Gamma  !      0                422.175137663217 0                422.17512484354  
! Port Impedance  261.642994290742 0                261.643724295592 0                

26.599           4.29526791104333E-006 119.471657819887 -51.7911834242349 29.4350538878592 -51.791183424238 29.4350538878523 4.84290475724475E-006 119.408157060278 
! Gamma  !      0                422.424099042273 0                422.424086230152 
! Port Impedance  261.577298304    0                261.578028115737 0                

26.608           6.8583387131099E-006 119.14545761366  -51.6658865309567 29.1085207822387 -51.6658865309598 29.1085207822313 7.44847432201107E-006 119.081963478079 
! Gamma  !      0                422.672997957016 0                422.672985152439 
! Port Impedance  261.511718356616 0                261.512447975589 0                

26.617           9.43347321139809E-006 118.818617292147 -51.5401790910356 28.7813644231737 -51.5401790910387 28.7813644231655 1.00649258250351E-005 118.755131572352 
! Gamma  !      0                422.92183451773  0                422.921821720687 
! Port Impedance  261.44625414648  0                261.446983573037 0                

26.626           1.20138192543393E-005 118.491128851047 -51.4140579041721 28.4535764829265 -51.4140579041754 28.4535764829186 1.26854147324211E-005 118.427653374724 
! Gamma  !      0                423.170608834412 0                423.170596044892 
! Port Impedance  261.380905372541 0                261.381634607027 0                

26.635           1.45926016536156E-005 118.162984148774 -51.2875197327818 28.12514850063   -51.2875197327852 28.1251485006218 1.53031734871412E-005 118.099520780301 
! Gamma  !      0                423.419321016775 0                423.419308234768 
! Port Impedance  261.315671734799 0                261.316400777561 0                

26.644           1.7163120191763E-005 117.834174903687 -51.1605613014097 27.7960718795072 -51.1605613014131 27.7960718794982 1.79115095455581E-005 117.770725544927 
! Gamma  !      0                423.667971174247 0                423.667958399741 
! Port Impedance  261.250552934307 0                261.251281785689 0                

26.653           1.97187475487236E-005 117.504692691257 -51.0331792961328 27.466337884022  -51.0331792961363 27.4663378840133 2.0503803276965E-005 117.441259282362 
! Gamma  !      0                423.916559415968 0                423.916546648954 
! Port Impedance  261.18554867316  0                261.186277333507 0                

26.662           2.22529270991311E-005 117.174528941153 -50.9053703639526 27.1359376369677 -50.9053703639561 27.1359376369586 2.30735057782196E-005 117.111113461395 
! Gamma  !      0                424.165085850801 0                424.165073091267 
! Port Impedance  261.120658654493 0                261.121387124148 0                

26.671           2.47591706536216E-005 116.843674934263 -50.7771311121734 26.804862116468  -50.777131112177 26.8048621164596 2.56141366131158E-005 116.780279402885 
! Gamma  !      0                424.413550587322 0                424.413537835258 
! Port Impedance  261.055882582479 0                261.056610861783 0                

26.68            2.72310560670248E-005 116.512121799633 -50.6484581077703 26.4731021529173 -50.6484581077739 26.4731021529083 2.8119281420566E-005 116.448748276724 
! Gamma  !      0                424.661953733829 0                424.661940989224 
! Port Impedance  260.991220162319 0                260.991948251613 0                

26.689           2.96622247597257E-005 116.179860511336 -50.5193478767435 26.1406484258313 -50.5193478767471 26.1406484258225 3.05825894398103E-005 116.116511098727 
! Gamma  !      0                424.910295398337 0                424.910282661181 
! Port Impedance  260.926671100241 0                260.927398999866 0                

26.698           3.20463791116962E-005 115.846881885254 -50.3897969034609 25.8074914606317 -50.3897969034645 25.8074914606218 3.2997770898654E-005 115.783558727437 
! Gamma  !      0                425.158575688586 0                425.158562958868 
! Port Impedance  260.862235103496 0                260.862962813791 0                

26.707           3.43772797542715E-005 115.513176575781 -50.2598016299867 25.4736216253329 -50.2598016299904 25.4736216253226 3.53585943148778E-005 115.449881860858 
! Gamma  !      0                425.406794712035 0                425.406781989744 
! Port Impedance  260.797911880349 0                260.798639401652 0                

26.716           3.66487427172413E-005 115.178735072438 -50.1293584553975 25.13902912716   -50.1293584554012 25.1390291271509 3.76588836413931E-005 115.115471033089 
! Gamma  !      0                425.654952575865 0                425.654939860992 
! Port Impedance  260.733701140081 0                260.734428472731 0                

26.725           3.88546364659738E-005 114.843547696408 -49.9984637350835 24.8037040090692 -49.9984637350873 24.8037040090597 3.98925153014286E-005 114.78031661089  
! Gamma  !      0                425.903049386984 0                425.903036679517 
! Port Impedance  260.669602592981 0                260.670329737313 0                

26.734           4.09888787880721E-005 114.507604596973 -49.8671137800373 24.4676361461812 -49.867113780041 24.4676361461718 4.20534150848225E-005 114.444408790142 
! Gamma  !      0                426.151085252023 0                426.151072551952 
! Port Impedance  260.60561595034  0                260.60634290669  0                

26.743           4.30454335604211E-005 114.17089574786  -49.7353048561269 24.1308152421259 -49.7353048561307 24.1308152421161 4.41355548977046E-005 114.107737592222 
! Gamma  !      0                426.399060277337 0                426.399047584653 
! Port Impedance  260.541740924449 0                260.542467693153 0                

26.752           4.50183073156245E-005 113.833410943495 -49.6030331833552 23.793230825285  -49.603033183359 23.7932308252758 4.6132949353998E-005 113.770292860288 
! Gamma  !      0                426.646974569012 0                426.646961883703 
! Port Impedance  260.477977228595 0                260.478703809987 0                

26.761           4.69015457061924E-005 113.495139795152 -49.4702949351033 23.4548722449451 -49.470294935107 23.4548722449352 4.80396522357429E-005 113.432064255456 
! Gamma  !      0                426.894828232857 0                426.894815554913 
! Port Impedance  260.414324577057 0                260.415050971468 0                

26.77            4.8689229773905E-005 113.156071727011 -49.3370862373598 23.1157286673416 -49.3370862373635 23.1157286673322 4.98497527373813E-005 113.093041252886 
! Gamma  !      0                427.142621374413 0                427.142608703824 
! Port Impedance  260.350782685096 0                260.35150889286  0                

26.779           5.03754720339964E-005 112.816195972097 -49.2034031679328 22.7757890716027 -49.2034031679364 22.7757890715927 5.15573715923647E-005 112.753213137756 
! Gamma  !      0                427.390354098949 0                427.390341435704 
! Port Impedance  260.287351268959 0                260.288077290407 0                

26.788           5.19544124030889E-005 112.47550156812  -49.0692417556472 22.4350422455853 -49.0692417556507 22.4350422455754 5.31566569702241E-005 112.412569001133 
! Gamma  !      0                427.638026511464 0                427.638013855553 
! Port Impedance  260.22403004587  0                260.224755881333 0                

26.797           5.34202139072313E-005 112.133977353206 -48.9345979795244 22.093476781599  -48.934597979528 22.0934767815891 5.46417802019603E-005 112.071097735736 
! Gamma  !      0                427.885638716689 0                427.885626068102 
! Port Impedance  260.160818734025 0                260.161544383832 0                

26.806           5.47670582009001E-005 111.791611961501 -48.7994677679458 21.7510810720162 -48.7994677679494 21.7510810720065 5.60069312874676E-005 111.728788031578 
! Gamma  !      0                428.133190819088 0                428.133178177814 
! Port Impedance  260.097717052592 0                260.098442517072 0                

26.815           5.59891408506754E-005 111.448393818671 -48.6638469977987 21.4078433047642 -48.6638469978022 21.4078433047545 5.72463142042771E-005 111.385628371495 
! Gamma  !      0                428.380682922857 0                428.380670288887 
! Port Impedance  260.034724721701 0                260.035450001182 0                

26.824           5.70806664260216E-005 111.104311137267 -48.527731493604 21.0637514586959 -48.5277314936075 21.0637514586864 5.83541419694025E-005 111.041607026558 
! Gamma  !      0                428.628115131926 0                428.628102505249 
! Port Impedance  259.971841462445 0                259.972566557254 0                

26.833           5.80358433026675E-005 110.759351911973 -48.3911170266264 20.7187932988328 -48.3911170266299 20.7187932988236 5.93246314677876E-005 110.696712051349 
! Gamma  !      0                428.875487549961 0                428.875474930567 
! Port Impedance  259.909066996873 0                259.909791907336 0                

26.842           5.88488782634454E-005 110.413503914717 -48.2539993139657 20.3729563714812 -48.2539993139692 20.372956371472  6.01519980434981E-005 110.350931279114 
! Gamma  !      0                429.122800280364 0                429.122787668243 
! Port Impedance  259.846401047987 0                259.84712577443  0                

26.851           5.95139707847266E-005 110.066754689651 -48.116374017629 20.0262279992126 -48.1163740176324 20.0262279992035 6.0830449788081E-005 110.004252316787 
! Gamma  !      0                429.370053426273 0                429.370040821415 
! Port Impedance  259.783843339736 0                259.784567882483 0                

26.86            6.00253070798108E-005 109.719091547988 -47.9782367435829 19.6785952757051 -47.9782367435863 19.6785952756955 6.13541815935933E-005 109.656662539867 
! Gamma  !      0                429.617247090564 0                429.617234492959 
! Port Impedance  259.721393597015 0                259.72211795639  0                

26.869           6.03770538240509E-005 109.370501562705 -47.8395830407864 19.3300450604436 -47.8395830407897 19.3300450604349 6.17173688603645E-005 109.308149087158 
! Gamma  !      0                429.864381375853 0                429.864368785489 
! Port Impedance  259.659051545659 0                259.659775721984 0                

26.878           6.05633515674951E-005 109.020971563083 -47.7004084002026 18.9805639732744 -47.7004084002059 18.9805639732658 6.1914160938566E-005 108.958698855366 
! Gamma  !      0                430.111456384492 0                430.111443801361 
! Port Impedance  259.596816912437 0                259.597540906035 0                

26.887           6.05783078176882E-005 108.67048812911  -47.5607082537898 18.6301383888015 -47.560708253793 18.6301383887925 6.19386741878636E-005 108.608298493532 
! Gamma  !      0                430.358472218577 0                430.358459642669 
! Port Impedance  259.534689425054 0                259.535413236246 0                

26.896           6.0415989781054E-005 108.319037585709 -47.4204779734704 18.2787544306307 -47.4204779734736 18.2787544306221 6.17849847322981E-005 108.256934397323 
! Gamma  !      0                430.605428979945 0                430.605416411249 
! Port Impedance  259.47266881214  0                259.473392441246 0                

26.905           6.00704167184987E-005 107.96660599682  -47.2797128700784 17.9263979654512 -47.2797128700816 17.9263979654426 6.14471208120278E-005 107.904592703153 
! Gamma  !      0                430.852326770172 0                430.852314208679 
! Port Impedance  259.410754803249 0                259.411478250589 0                

26.914           5.95355519210153E-005 107.613179159298 -47.1384081922834 17.5730545969443 -47.1384081922864 17.5730545969357 6.09190547743594E-005 107.551259282134 
! Gamma  !      0                431.099165690582 0                431.09915313628  
! Port Impedance  259.348947128858 0                259.349670394749 0                

26.923           5.88052942667122E-005 107.258742596646 -46.9965591254918 17.2187096595249 -46.9965591254949 17.2187096595167 6.01946946114869E-005 107.196919733865 
! Gamma  !      0                431.345945842238 0                431.345933295119 
! Port Impedance  259.287245520356 0                259.287968605118 0                

26.932           5.78734693419024E-005 106.903281552566 -46.8541607907244 16.8633482119003 -46.8541607907273 16.8633482118918 5.92678750931507E-005 106.841559380029 
! Gamma  !      0                431.592667325951 0                431.592654786005 
! Port Impedance  259.225649710048 0                259.226372613997 0                

26.941           5.67338200915327E-005 106.546780984316 -46.7112082434684 16.5069550304413 -46.7112082434713 16.506955030433  5.81323484286354E-005 106.485163257816 
! Gamma  !      0                431.839330242276 0                431.839317709493 
! Port Impedance  259.164159431145 0                259.164882154598 0                

26.95            5.53799969950869E-005 106.189225555887 -46.5676964725055 16.1495146023654 -46.5676964725084 16.1495146023574 5.67817744272422E-005 106.127716113152 
! Gamma  !      0                432.085934691517 0                432.085922165886 
! Port Impedance  259.102774417764 0                259.103496961035 0                

26.959           5.38055477139559E-005 105.830599630969 -46.4236203987139 15.7910111187216 -46.4236203987166 15.7910111187134 5.52097101572283E-005 105.769202393725 
! Gamma  !      0                432.332480773722 0                432.332468255234 
! Port Impedance  259.04149440492  0                259.042216768324 0                

26.968           5.20039061716918E-005 105.470887265719 -46.278974873843 15.4314284671642 -46.2789748738458 15.4314284671567 5.34095990279876E-005 105.409606241814 
! Gamma  !      0                432.57896858869  0                432.578956077335 
! Port Impedance  258.980319128527 0                258.981041312379 0                

26.977           4.9968381094139E-005 105.110072201306 -46.1337546792626 15.0707502245241 -46.1337546792652 15.0707502245163 5.13747593224652E-005 105.048911486902 
! Gamma  !      0                432.825398235967 0                432.825385731736 
! Port Impedance  258.919248325391 0                258.919970330003 0                

26.986           4.76921438937123E-005 104.748137856247 -45.9879545246826 14.7089596491488 -45.9879545246851 14.708959649141  4.90983721045778E-005 104.687101638077 
! Gamma  !      0                433.071769814851 0                433.071757317734 
! Port Impedance  258.858281733207 0                258.859003558891 0                

26.995           4.51682159190279E-005 104.385067318504 -45.8415690468456 14.3460396730259 -45.8415690468482 14.3460396730189 4.65734684437699E-005 104.324159876194 
! Gamma  !      0                433.31808342439  0                433.318070934376 
! Port Impedance  258.797419090555 0                258.798140737623 0                

27.004           4.2389455004298E-005 104.020843337353 -45.6945928081895 13.9819728936644 -45.694592808192 13.9819728936571 4.37929159856225E-005 103.960069045817 
! Gamma  !      0                433.564339163382 0                433.564326680462 
! Port Impedance  258.736660136897 0                258.737381605659 0                

27.013           3.93485412914779E-005 103.655448314999 -45.5470202954799 13.6167415657343 -45.5470202954823 13.6167415657273 4.07494047701407E-005 103.594811646909 
! Gamma  !      0                433.81053713038  0                433.810524654545 
! Port Impedance  258.676004612572 0                258.676725903338 0                

27.022           3.60379622615018E-005 103.288864297943 -45.3988459184121 13.2503275924543 -45.3988459184145 13.2503275924478 3.74354322649172E-005 103.228369826277 
! Gamma  !      0                434.056677423689 0                434.056664954929 
! Port Impedance  258.615452258793 0                258.616173371871 0                

27.031           3.24499969475923E-005 102.921072968088 -45.2500640081815 12.8827125167195 -45.2500640081838 12.8827125167128 3.3843287584226E-005 102.860725368749 
! Gamma  !      0                434.302760141369 0                434.302747679673 
! Port Impedance  258.555002817643 0                258.555723753342 0                

27.04            2.857669927855E-005 102.55205563357  -45.1006688160213 12.5138775119541 -45.1006688160235 12.5138775119477 2.99650348149527E-005 102.491859688092 
! Gamma  !      0                434.548785381233 0                434.548772926593 
! Port Impedance  258.494656032072 0                258.4953767907   0                

27.049           2.4409880455572E-005 102.181793219304 -44.9506545117068 12.1438033726904 -44.950654511709 12.143803372684  2.57924954358422E-005 102.121753817642 
! Gamma  !      0                434.794753240852 0                434.794740793258 
! Port Impedance  258.434411645892 0                258.435132227755 0                

27.058           1.99410903876487E-005 101.810266257245 -44.800015182026 11.7724705048507 -44.8000151820281 11.7724705048447 2.13172297123917E-005 101.750388400651 
! Gamma  !      0                435.040663817553 0                435.040651376995 
! Port Impedance  258.374269403776 0                258.37498980918  0                

27.067           1.51615980389363E-005 101.43745487634  -44.6487448292144 11.3998589157335 -44.6487448292165 11.3998589157274 1.65305170808676E-005 101.377743680333 
! Gamma  !      0                435.28651720842  0                435.286504774888 
! Port Impedance  258.31422905125  0                258.3149492805   0                

27.076           1.006237067458E-005 101.06333879217  -44.4968373693544 11.0259482036839 -44.4968373693565 11.0259482036782 1.14233353613388E-005 101.003799489594 
! Gamma  !      0                435.532313510295 0                435.53230108378  
! Port Impedance  258.254290334694 0                258.255010388094 0                

27.085           4.6340519123798E-006 100.687897296267 -44.3442866307374 10.6507175474427 -44.3442866307393 10.6507175474369 5.98633885177221E-006 100.628535240451 
! Gamma  !      0                435.778052819779 0                435.778040400271 
! Port Impedance  258.194453001334 0                258.195172879188 0                

27.094           -1.13306147276975E-006 100.311109245089 -44.1910863521876 10.274145695159  -44.1910863521896 10.2741456951538 2.09835100648249E-007 100.251929913105 
! Gamma  !      0                436.023735233234 0                436.023722820725 
! Port Impedance  258.134716799243 0                258.135436501854 0                

27.103           -7.24904412188723E-006 99.9329530486506 -44.0372301813481 9.89621095305666 -44.0372301813499 9.89621095305111 -5.91623964001166E-006 99.8739620446805 
! Gamma  !      0                436.269360846782 0                436.269348441261 
! Port Impedance  258.075081477334 0                258.075801005003 0                

27.112           -1.37243680385415E-005 99.5534066587864 -43.8827116729245 9.51689117373511 -43.8827116729262 9.51689117373008 -1.24023463757487E-005 99.4946097175907 
! Gamma  !      0                436.514929756307 0                436.514917357765 
! Port Impedance  258.015546785358 0                258.016266138386 0                

27.121           -2.05699301136002E-005 99.1724475570417 -43.7275242868904 9.13616374410335 -43.7275242868921 9.1361637440984  -1.9259370878023E-005 99.1138505475457 
! Gamma  !      0                436.760442057453 0                436.76042966588  
! Port Impedance  257.956112473898 0                257.956831652587 0                

27.13            -2.77970812281382E-005 98.7900527421683 -43.5716613866482 8.75400557291688 -43.57166138665  8.7540055729123  -2.64986527871242E-005 98.7316616711627 
! Gamma  !      0                437.00589784563  0                437.005885461017 
! Port Impedance  257.896778294371 0                257.897497299019 0                

27.139           -3.54176570946383E-005 98.4061987172173 -43.4151162371479 8.37039307791829 -43.4151162371495 8.37039307791371 -3.413201646591E-005 98.3480197331806 
! Gamma  !      0                437.25129721601  0                437.251284838348 
! Port Impedance  257.837543999017 0                257.838262829925 0                

27.148           -4.34440109242974E-005 98.0208614762098 -43.2578820029605 7.9853021725533  -43.2578820029622 7.98530217254945 -4.21718036352921E-005 97.9629008732554 
! Gamma  !      0                437.49664026353  0                437.49662789281  
! Port Impedance  257.778409340904 0                257.779127998368 0                

27.157           -5.18890480661185E-005 97.6340164903702 -43.0999517463069 7.59870825225881 -43.0999517463085 7.59870825225459 -5.06309080393662E-005 97.5762807123241 
! Gamma  !      0                437.741927082893 0                437.741914719104 
! Port Impedance  257.719374073916 0                257.720092558234 0                

27.166           -6.07662627133284E-005 97.2456386939047 -42.9413184250381 7.21058618028949 -42.9413184250396 7.21058618028543 -5.95228121315822E-005 97.1881343385188 
! Gamma  !      0                437.987157768568 0                437.987145411701 
! Port Impedance  257.660437952756 0                257.661156264225 0                

27.175           -7.00897768363178E-005 96.8557024693086 -42.7819748905685 6.82091027308483 -42.7819748905699 6.820910273081   -6.8861625998043E-005 96.7984362926133 
! Gamma  !      0                438.232332414789 0                438.232320064836 
! Port Impedance  257.601600732939 0                257.602318871855 0                

27.184           -7.98743814762333E-005 96.4641816321824 -42.621913885759 6.4296542851425  -42.6219138857604 6.4296542851392  -7.86621286790655E-005 96.4071605529855 
! Gamma  !      0                438.477451115562 0                438.477438772512 
! Port Impedance  257.54286217079  0                257.543580137448 0                

27.193           -9.01355805883313E-005 96.071049415539  -42.4611280427495 6.03679139338851 -42.4611280427508 6.03679139338497 -8.89398119739637E-005 96.0142805200761 
! Gamma  !      0                438.722513964656 0                438.722501628501 
! Port Impedance  257.484222023441 0                257.484939818136 0                

27.202           -0.000100889637558635 95.6762784535797 -42.2996098807387 5.64229418101608 -42.29960988074  5.64229418101287 -9.97109269663885E-005 95.6197690003213 
! Gamma  !      0                438.967521055614 0                438.967508726345 
! Port Impedance  257.425680048827 0                257.426397671852 0                

27.211           -0.00011215362461003 95.2798407649205 -42.1373518037105 5.24613462078291 -42.1373518037117 5.24613462077945 -0.000110992533433319 95.2235981895425 
! Gamma  !      0                439.212472481747 0                439.212460159353 
! Port Impedance  257.367236005682 0                257.36795345733  0                

27.22            -0.000123945475266688 94.8817077352445 -41.9743460981048 4.84828405773185 -41.974346098106 4.84828405772887 -0.000122802552308528 94.8257396557684 
! Gamma  !      0                439.457368336136 0                439.457356020609 
! Port Impedance  257.308889653536 0                257.309606934099 0                

27.229           -0.000136284040138303 94.4818500993587 -41.8105849304324 4.44871319132647 -41.8105849304335 4.44871319132368 -0.000135159821444643 94.4261643214682 
! Gamma  !      0                439.702208711635 0                439.702196402966 
! Port Impedance  257.250640752714 0                257.251357862483 0                

27.238           -0.000149189146167038 94.0802379226293 -41.64606034483  4.04739205696211 -41.6460603448311 4.04739205695945 -0.000148084154868771 94.0248424451698 
! Gamma  !      0                439.94699370087  0                439.946981399049 
! Port Impedance  257.192489064327 0                257.193206003594 0                

27.247           -0.000162681659649792 93.6768405817737 -41.4807642605574 3.64429000684195 -41.4807642605584 3.64429000683923 -0.000161596405803815 93.6217436024431 
! Gamma  !      0                440.191723396239 0                440.191711101258 
! Port Impedance  257.134434350276 0                257.13515111933  0                

27.256           -0.00017678355326456 93.2716267449784 -41.3146884694317 3.23937569018191 -41.3146884694327 3.23937569017947 -0.000175718533690977 93.2168366662152 
! Gamma  !      0                440.436397889916 0                440.436385601765 
! Port Impedance  257.076476373243 0                257.077192972374 0                

27.265           -0.000191517977393299 92.8645643513183 -41.1478246331988 2.83261703271967 -41.1478246331997 2.83261703271733 -0.000190473675487558 92.8100897863966 
! Gamma  !      0                440.681017273846 0                440.681004992517 
! Port Impedance  257.018614896692 0                257.019331326188 0                

27.274           -0.000206909336006753 92.4556205894469 -40.9801642808398 2.42398121550123 -40.9801642808407 2.4239812154988  -0.000205886221574935 92.401470368785  
! Gamma  !      0                440.925581639753 0                440.925569365236 
! Port Impedance  256.96084968486  0                256.961565945009 0                

27.283           -0.000222983367487606 92.0447618755274 -40.8116988058115 2.01343465291112 -40.8116988058124 2.01343465290931 -0.000221981896562435 91.9909450532203 