! Touchstone file from project Ka_PF
! Exported from HFSS 15.0.0
! Variables:
!  AA = 0.34in
!  BB = 0.145in
!  M01 = 0.1623in
!  M11 = 0.2167in
!  M12 = 0.1081in
!  M22 = 0.2391in
!  PL = 0.3in
!  RR = 0.035in
!  TT = 0.04in
!Data is not renormalized
# GHZ S DB
! Modal data exported
! Port[1] = 1:1
! Port[2] = 2:1
26.5             -7.45653072854964E-005 122.260751838949 -47.6525122997856 -147.770066567121 -47.6525122997859 -147.770066567127 -7.4565305758953E-005 122.199115026072 
! Gamma  !      -0               419.682064998768 -0               419.681991849384 
! Port Impedance  262.307438755063 0                262.29619012417  0                

26.509           -7.21995282957607E-005 121.930046576983 -47.5206397665109 -148.100792268064 -47.5206397665111 -148.10079226807 -7.21830458833555E-005 121.868372690176 
! Gamma  !      0                419.931657149828 0                419.931584043921 
! Port Impedance  262.240565257989 0                262.229319515157 0                

26.518           -7.01978893382373E-005 121.59864278397  -47.3883004452473 -148.432216064254 -47.3883004452476 -148.432216064259 -7.01659084679974E-005 121.536932139876 
! Gamma  !      0                420.181185717716 0                420.181112655224 
! Port Impedance  262.173810881124 0                262.162568021191 0                

26.527           -6.85551388446194E-005 121.266530544083 -47.2554903854199 -148.764347884583 -47.2554903854201 -148.764347884589 -6.85086144998831E-005 121.204783467568 
! Gamma  !      0                420.430650815644 0                420.430577796504 
! Port Impedance  262.107175311504 0                262.095935329326 0                

26.536           -6.7266279291675E-005 120.933699766447 -47.1222055854448 -149.097197832367 -47.1222055854451 -149.097197832373 -6.72061393922991E-005 120.871916590826 
! Gamma  !      0                420.680052556526 0                420.679979580676 
! Port Impedance  262.040658237277 0                262.029421127719 0                

26.545           -6.63265723706828E-005 120.600140181179 -46.9884419918372 -149.430776189302 -46.9884419918375 -149.430776189308 -6.62537181629097E-005 120.538321248454 
! Gamma  !      0                420.929391052979 0                420.929318120357 
! Port Impedance  261.974259347689 0                261.963025105633 0                

26.554           -6.57315444714222E-005 120.265841335325 -46.854195498298 -149.765093419535 -46.8541954982984 -149.76509341954 -6.56468509129071E-005 120.203986996426 
! Gamma  !      0                421.178666417326 0                421.178593527869 
! Port Impedance  261.907978333085 0                261.896746953425 0                

26.563           -6.547699249711E-005 119.930792588678 -46.7194619447814 -150.10016017385 -46.7194619447817 -150.100160173855 -6.53813086274657E-005 119.868903203712 
! Gamma  !      0                421.427878761595 0                421.427805915241 
! Port Impedance  261.841814884902 0                261.830586362546 0                

26.572           -6.55589900016043E-005 119.594983109479 -46.5842371165412 -150.435987293965 -46.5842371165416 -150.43598729397 -6.54531393273946E-005 119.533059047988 
! Gamma  !      0                421.677028197521 0                421.676955394209 
! Port Impedance  261.775768695664 0                261.764543025532 0                

26.581           -6.59738937028784E-005 119.258401870005 -46.4485167431562 -150.772585816956 -46.4485167431567 -150.772585816962 -6.58586745671671E-005 119.196443511227 
! Gamma  !      0                421.926114836547 0                421.926042076215 
! Port Impedance  261.709839458977 0                261.698616636004 0                

26.59            -6.67183503727675E-005 118.921037642017 -46.3122964975338 -151.109966979803 -46.3122964975342 -151.109966979808 -6.65945363304374E-005 118.859045375166 
! Gamma  !      0                422.175138789826 0                422.175066072412 
! Port Impedance  261.644026869525 0                261.632806888659 0                

26.599           -6.77893041367383E-005 118.582878992097 -46.1755719948905 -151.448142224059 -46.175571994891 -151.448142224065 -6.76576443172602E-005 118.520853216636 
! Gamma  !      0                422.424100168218 0                422.424027493661 
! Port Impedance  261.578330623066 0                261.567113479267 0                

26.608           -6.91840041769353E-005 118.243914276837 -46.0383387917107 -151.787123200667 -46.0383387917111 -151.787123200673 -6.90452236596608E-005 118.181855402774 
! Gamma  !      0                422.672999082297 0                422.672926450537 
! Port Impedance  261.512750416424 0                261.501536104667 0                

26.617           -7.0900012924332E-005 117.904131637898 -45.9005923846801 -152.126921774896 -45.9005923846806 -152.126921774902 -7.0754813092557E-005 117.842040086081 
! Gamma  !      0                422.921835642349 0                422.921763053323 
! Port Impedance  261.447285947488 0                261.436074462759 0                

26.626           -7.29352146763437E-005 117.563518996924 -45.7623282095967 -152.467550031437 -45.7623282095972 -152.467550031443 -7.27842735887188E-005 117.50139519935  
! Gamma  !      0                423.17060995837  0                423.170537412018 
! Port Impedance  261.381936915205 0                261.370728252505 0                

26.635           -7.52878247662342E-005 117.222064050306 -45.623541640255 -152.809020279634 -45.6235416402555 -152.809020279639 -7.51317975088766E-005 117.159908450439 
! Gamma  !      0                423.419322140073 0                423.419249636334 
! Port Impedance  261.316703019576 0                261.305497173917 0                

26.644           -7.79563992341761E-005 116.879754263801 -45.4842279873062 -153.151345058872 -45.4842279873067 -153.151345058877 -7.77959182718072E-005 116.817567316899 
! Gamma  !      0                423.667972296885 0                423.667899835698 
! Port Impedance  261.25158396165  0                261.240380928059 0                

26.653           -8.09398450587955E-005 116.536576866983 -45.3443824970907 -153.494537144123 -45.3443824970912 -153.494537144128 -8.07755206022612E-005 116.474359040436 
! Gamma  !      0                423.916560537948 0                423.916488119254 
! Port Impedance  261.186579443522 0                261.175379217038 0                

26.662           -8.42374310109245E-005 116.192518847539 -45.2040003504444 -153.838609551655 -45.2040003504449 -153.838609551659 -8.40698513586699E-005 116.130270621216 
! Gamma  !      0                424.165086972123 0                424.16501459586  
! Port Impedance  261.121689168328 0                261.110491744003 0                

26.671           -8.78487991122127E-005 115.847566945394 -45.0630766614767 -154.183575544906 -45.0630766614773 -154.183575544911 -8.767853099464E-005 115.785288812001 
! Gamma  !      0                424.413551707988 0                424.413479374096 
! Port Impedance  261.056912840236 0                261.045718213135 0                

26.68            -9.17739767612875E-005 115.501707646655 -44.9216064763203 -154.529448640541 -44.9216064763208 -154.529448640546 -9.16015656899282E-005 115.43940011211  
! Gamma  !      0                424.661954853839 0                424.661882562258 
! Port Impedance  260.992250164448 0                260.981058329649 0                

26.689           -9.60133895785849E-005 115.154927177383 -44.7795847718504 -154.876242614681 -44.7795847718509 -154.876242614686 -9.5839360196228E-005 115.092590761196 
! Gamma  !      0                424.910296517692 0                424.910224268364 
! Port Impedance  260.92770084719  0                260.916511799784 0                

26.698           -0.000100567874996863 114.807211497174 -44.6370064543758 -155.223971509322 -44.6370064543764 -155.223971509326 -0.000100392731410318 114.744846732838 
! Gamma  !      0                425.158576807287 0                425.15850460015  
! Port Impedance  260.863264595712 0                260.852078330801 0                

26.707           -0.000105438696629236 114.458546292539 -44.4938663582965 -155.572649638952 -44.4938663582972 -155.572649638956 -0.000105262922744016 114.396153727945 
! Gamma  !      0                425.406795830083 0                425.406723665078 
! Port Impedance  260.798941118279 0                260.787757630979 0                

26.716           -0.000110627559492853 114.108916970097 -44.3501592447311 -155.922291597363 -44.3501592447316 -155.922291597367 -0.0001104516193575 114.046497167948 
! Gamma  !      0                425.654953693261 0                425.654881570329 
! Port Impedance  260.734730124171 0                260.72354940961  0                

26.725           -0.000116136626110421 113.758308649546 -44.2058798001097 -156.272912264677 -44.2058798001103 -156.272912264681 -0.000115960964239603 113.695862187793 
! Gamma  !      0                425.903050503729 0                425.90297842281  
! Port Impedance  260.670631323673 0                260.659453376993 0                

26.734           -0.000121968533561916 113.406706156424 -44.0610226347346 -156.624526814582 -44.0610226347352 -156.624526814587 -0.000121793575275919 113.344233628714 
! Gamma  !      0                426.151086368117 0                426.151014329152 
! Port Impedance  260.606644428077 0                260.595469244432 0                

26.743           -0.000128126411535686 113.054094014647 -43.9155822813052 -156.977150721797 -43.9155822813058 -156.977150721801 -0.000127952563276749 112.991596030787 
! Gamma  !      0                426.399061392782 0                426.398989395713 
! Port Impedance  260.542769149673 0                260.531596724229 0                

26.752           -0.000134613901425249 112.700456438811 -43.7695531934064 -157.330799769761 -43.769553193407 -157.330799769765 -0.000134441551090296 112.637933625245 
! Gamma  !      0                426.646975683808 0                426.646903728575 
! Port Impedance  260.479005201747 0                260.467835529682 0                

26.761           -0.000141435176569227 112.345777326258 -43.6229297439616 -157.685490058574 -43.6229297439622 -157.685490058578 -0.000141264693828128 112.283230326561 
! Gamma  !      0                426.894829347006 0                426.89475743355  
! Port Impedance  260.415352298575 0                260.40418537508  0                

26.77            -0.000148594963678792 111.99004024889  -43.4757062236467 -158.041238013179 -43.4757062236474 -158.041238013182 -0.000148426700299365 111.927469724277 
! Gamma  !      0                427.142622487914 0                427.142550616178 
! Port Impedance  260.351810155419 0                260.340645975698 0                

26.779           -0.000156098565527882 111.633228444719 -43.3278768392654 -158.398060391799 -43.327876839266 -158.398060391803 -0.000155932855683539 111.570635074575 
! Gamma  !      0                427.390355211803 0                427.390283381728 
! Port Impedance  260.288378488524 0                260.277217047792 0                

26.788           -0.00016395188499301 111.275324809161 -43.1794357120835 -158.755974294657 -43.1794357120841 -158.755974294661 -0.000163789045586791 111.212709291582 
! Gamma  !      0                427.638027623671 0                427.6379558352   
! Port Impedance  260.225057015113 0                260.213898308598 0                

26.797           -0.000172161450513105 110.916311886037 -43.0303768761231 -159.114997172956 -43.0303768761236 -159.114997172959 -0.000172001781486281 110.853674938398 
! Gamma  !      0                427.885639828248 0                427.885568081325 
! Port Impedance  260.161845453381 0                260.150689476324 0                

26.806           -0.000180734443082266 110.556171858294 -42.8806942764124 -159.475146838164 -42.880694276413 -159.475146838166 -0.000180578227718115 110.493514217825 
! Gamma  !      0                428.133191929994 0                428.133120224566 
! Port Impedance  260.098743522494 0                260.087590270147 0                

26.815           -0.000189678724845857 110.194886538423 -42.7303817671937 -159.836441471588 -42.7303817671943 -159.836441471591 -0.000189526230086944 110.132208962816 
! Gamma  !      0                428.380684033045 0                428.38061236912  
! Port Impedance  260.035750942582 0                260.024600410209 0                

26.824           -0.000199002869404173 109.832437358561 -42.5794331100837 -160.198899634267 -42.5794331100843 -160.19889963427 -0.000198854346146477 109.769740626589 
! Gamma  !      0                428.628116241624 0                428.628044618917 
! Port Impedance  259.972867434736 0                259.961719617615 0                

26.833           -0.000208716193958725 109.468805360277 -42.427841972189 -160.562540277182 -42.4278419721896 -160.562540277185 -0.000208571877358304 109.40609027244  
! Gamma  !      0                428.875488658989 0                428.875417077624 
! Port Impedance  259.910092721005 0                259.898947614424 0                

26.842           -0.000218828793371617 109.103971184013 -42.2756019241727 -160.927382751812 -42.2756019241733 -160.927382751815 -0.000218688903145485 109.041238563203 
! Gamma  !      0                429.122801388745 0                429.122729848642 
! Port Impedance  259.847426524389 0                259.836284123649 0                

26.851           -0.000229351576314575 108.737915058179 -42.1227064382715 -161.293446821025 -42.1227064382721 -161.293446821028 -0.000229216317033865 108.675165750368 
! Gamma  !      0                429.370054534013 0                429.369983035109 
! Port Impedance  259.784868568837 0                259.77372886925  0                

26.86            -0.000240296303586777 108.370616787888 -41.9691488862622 -161.660752670346 -41.9691488862628 -161.660752670349 -0.000240165864977611 108.30785166284  
! Gamma  !      0                429.617248197664 0                429.617176739902 
! Port Impedance  259.722418579241 0                259.711281576133 0                

26.869           -0.000251675628799264 108.002055743301 -41.8149225373749 -162.029320919597 -41.8149225373755 -162.029320919599 -0.00025155018602338 107.939275695313 
! Gamma  !      0                429.864382482315 0                429.864311065635 
! Port Impedance  259.660076281436 0                259.648941970144 0                

26.878           -0.000263503141514781 107.632210847596 -41.6600205561529 -162.399172634926 -41.6600205561535 -162.399172634929 -0.000263382855465578 107.569416796257 
! Gamma  !      0                430.111457490318 0                430.111386114664 
! Port Impedance  259.597841402191 0                259.586709778063 0                

26.887           -0.000275793413058178 107.261060564509 -41.5044360002556 -162.770329341253 -41.5044360002562 -162.770329341256 -0.000275678430652915 107.198253455496 
! Gamma  !      0                430.358473323768 0                430.358401989083 
! Port Impedance  259.535713669208 0                259.524584727604 0                

26.896           -0.000288562045156648 106.888582885469 -41.348161818205 -163.142813035133 -41.3481618182056 -163.142813035135 -0.000288452499613202 106.825763691357 
! Gamma  !      0                430.605430084501 0                430.605358790727 
! Port Impedance  259.473692811117 0                259.462566547409 0                

26.905           -0.000301825721570966 106.51475531627  -41.1911908470712 -163.516646198062 -41.1911908470718 -163.516646198065 -0.000301721732690382 106.45192503739  
! Gamma  !      0                430.852327874095 0                430.852256621176 
! Port Impedance  259.411778557471 0                259.400654967044 0                

26.914           -0.000315602262951276 106.139554863303 -41.0335158100985 -163.891851810253 -41.0335158100991 -163.891851810255 -0.00031550393740128 106.07671452861  
! Gamma  !      0                431.099166793872 0                431.099095581752 
! Port Impedance  259.349970638745 0                259.338849716993 0                

26.923           -0.000329910685110463 105.762958019288 -40.8751293142668 -164.268453364873 -40.8751293142674 -164.268453364875 -0.000329818116698365 105.700108687276 
! Gamma  !      0                431.345946944896 0                431.345875773518 
! Port Impedance  259.288268786329 0                259.27715052866  0                

26.932           -0.000344771260943859 105.384940748523 -40.7160238477881 -164.6464748828  -40.7160238477886 -164.646474882802 -0.000344684530900066 105.322083508167 
! Gamma  !      0                431.592668427979 0                431.592597297286 
! Port Impedance  259.226672732524 0                259.215557134358 0                

26.941           -0.00036020558626552 105.005478471601 -40.5561917775362 -165.025940927881 -40.5561917775368 -165.025940927883 -0.000360124763505831 104.942614443332 
! Gamma  !      0                431.839331343675 0                431.839260253612 
! Port Impedance  259.165182210542 0                259.154069267308 0                

26.95            -0.000376236649782144 104.624546049591 -40.3956253464067 -165.406876622747 -40.3956253464072 -165.406876622749 -0.000376161791182585 104.561676386308 
! Gamma  !      0                432.085935792286 0                432.085864742797 
! Port Impedance  259.103796954498 0                259.092686661639 0                

26.959           -0.000392888907527974 104.242117767653 -40.234316670605 -165.789307665179 -40.2343166706056 -165.789307665181 -0.000392820058193843 104.179243655773 
! Gamma  !      0                432.332481873864 0                432.332410864891 
! Port Impedance  259.042516699407 0                259.031409052376 0                

26.968           -0.000410188362036769 103.858167318056 -40.0722577368611 -166.173260345074 -40.0722577368616 -166.173260345076 -0.000410125555567826 103.795289978603 
! Gamma  !      0                432.578969688204 0                432.578898719694 
! Port Impedance  258.981341181181 0                258.970236175444 0                

26.977           -0.000428162646590652 103.472667782598 -39.9094403995672 -166.558761562017 -39.9094403995677 -166.558761562019 -0.000428105905345344 103.409788472329 
! Gamma  !      0                432.825399334855 0                432.825328406751 
! Port Impedance  258.920270136626 0                258.909167767658 0                

26.986           -0.000446841114904926 103.085591614363 -39.7458563778372 -166.945838843496 -39.7458563778378 -166.945838843498 -0.000446790450258829 103.022711626941 
! Gamma  !      0                433.071770913114 0                433.071700025361 
! Port Impedance  258.859303303435 0                258.848203566725 0                

26.995           -0.000466254936588748 102.696910618832 -39.5814972524851 -167.334520363787 -39.5814972524857 -167.334520363789 -0.000466210349187213 102.634031286039 
! Gamma  !      0                433.318084522028 0                433.31801367457  
! Port Impedance  258.798440420187 0                258.787343311234 0                

27.004           -0.00048643719882474 102.306595934278 -39.4163544629181 -167.724834963529 -39.4163544629185 -167.724834963531 -0.000486398678862557 102.243718627274 
! Gamma  !      0                433.564340260397 0                433.564269453179 
! Port Impedance  258.737681226343 0                258.726586740657 0                

27.013           -0.000507423014701077 101.914618011441 -39.2504193039441 -168.116812170034 -39.2504193039446 -168.116812170036 -0.00050739054215294 101.851744142075 
! Gamma  !      0                433.810538226773 0                433.810467459739 
! Port Impedance  258.67702546224  0                258.665933595344 0                

27.022           -0.000529249638633465 101.520946592442 -39.0836829224898 -168.510482218355 -39.0836829224903 -168.510482218356 -0.000529223183519165 101.458077614607 
! Gamma  !      0                434.05667851946  0                434.056607792557 
! Port Impedance  258.616472869092 0                258.605383616519 0                

27.031           -0.000551956589409023 101.1255506889   -38.9161363142252 -168.905876073142 -38.9161363142256 -168.905876073144 -0.000551936112040314 101.062688099945 
! Gamma  !      0                434.302761236519 0                434.30269054969  
! Port Impedance  258.556023188981 0                258.544936546274 0                

27.04            -0.00057558578139091 100.728398559218 -38.7477703200937 -169.303025451338 -38.7477703200941 -169.303025451339 -0.000575571232613551 100.665543901409 
! Gamma  !      0                434.548786475763 0                434.548715828955 
! Port Impedance  258.495676164854 0                258.484592127569 0                

27.049           -0.000600181664457328 100.329457685005 -38.5785756227423 -169.701962845729 -38.5785756227428 -169.70196284573 -0.000600172985914345 100.26661254705  
! Gamma  !      0                434.794754334763 0                434.79468372792  
! Port Impedance  258.435431540524 0                258.424350104228 0                

27.058           -0.000625791373333511 99.9286947465846 -38.4085427428511 -170.102721549409 -38.4085427428515 -170.102721549411 -0.000625788497696627 99.8658607652099 
! Gamma  !      0                435.040664910845 0                435.040594343914 
! Port Impedance  258.375289060662 0                258.364210220932 0                

27.067           -0.000652464886954181 99.5260755975629 -38.2376620353562 -170.505335681194 -38.2376620353566 -170.505335681195 -0.000652467738163931 99.463254459157  
! Gamma  !      0                435.286518301094 0                435.28644777402  
! Port Impedance  258.315248470792 0                258.304172223217 0                

27.076           -0.000680255198635866 99.1215652383939 -38.0659236855641 -170.909840212014 -38.0659236855645 -170.909840212015 -0.000680263692151353 99.0587586807142 
! Gamma  !      0                435.532314602352 0                435.53224411508  
! Port Impedance  258.255309517295 0                258.244235857475 0                

27.085           -0.000709218497812551 98.7151277889145 -37.893317705154 -171.31627099236 -37.8933177051545 -171.316270992362 -0.00070923254084673 98.6523376028611 
! Gamma  !      0                435.778053911221 0                435.777983463697 
! Port Impedance  258.195471947395 0                258.18440087094  0                

27.094           -0.000739414364226201 98.3067264597875 -37.7198339280632 -171.724664780805 -37.7198339280637 -171.724664780806 -0.000739433855977309 98.2439544912486 
! Gamma  !      0                436.023736324061 0                436.023665916232 
! Port Impedance  258.135735509164 0                258.124667011696 0                

27.103           -0.000770905975460996 97.8963235228074 -37.545462006252 -172.135059273663 -37.5454620062525 -172.135059273664 -0.000770930807359405 97.8335716745785 
! Gamma  !      0                436.269361936995 0                436.269291568807 
! Port Impedance  258.076099951514 0                258.065034028666 0                

27.112           -0.000803760328853014 97.4838802800132 -37.3701914053451 -172.547493135843 -37.3701914053455 -172.547493135844 -0.000803790384779157 97.4211505137936 
! Gamma  !      0                436.514930845906 0                436.514860517305 
! Port Impedance  258.016565024194 0                258.005501671609 0                

27.121           -0.000838048478822785 97.0693570315526 -37.1940114001437 -172.962006032952 -37.1940114001441 -172.962006032953 -0.000838083635349177 97.0066513700227 
! Gamma  !      0                436.76044314644  0                436.760372857372 
! Port Impedance  257.957130477789 0                257.946069691121 0                

27.13            -0.00087384579082399 96.6527130422339 -37.016911070005 -173.378638664697 -37.0169110700053 -173.378638664698 -0.00087388591744472 96.5900335712178 
! Gamma  !      0                437.005898934005 0                437.005828684417 
! Port Impedance  257.897796063712 0                257.886737838626 0                

27.139           -0.000911232213158786 96.2339065067078 -36.8388792940844 -173.797432799666 -36.8388792940848 -173.797432799667 -0.000911277172514173 96.1712553774241 
! Gamma  !      0                437.251298303774 0                437.251228093612 
! Port Impedance  257.838561534203 0                257.827505866376 0                

27.148           -0.000950292568029168 95.8128945132062 -36.6599047464357 -174.218431311547 -36.6599047464361 -174.218431311548 -0.000950342216140063 95.7502739446124 
! Gamma  !      0                437.496641350684 0                437.496571179895 
! Port Impedance  257.779426642329 0                257.768373527446 0                

27.157           -0.000991116863312781 95.3896330057706 -36.479975890964 -174.641678216854 -36.4799758909644 -174.641678216855 -0.00099117104979364 95.3270452870046 
! Gamma  !      0                437.741928169438 0                437.741858037969 
! Port Impedance  257.720391141974 0                257.709340575733 0                

27.166           -0.00103380062664844 94.9640767448944 -36.2990809762271 -175.067218714235 -36.2990809762275 -175.067218714236 -0.00103385919494162 94.9015242378179 
! Gamma  !      0                437.987158854504 0                437.987088762302 
! Port Impedance  257.661454787838 0                257.650406765947 0                

27.175           -0.00107844526360133 94.536179266499  -36.1172080300795 -175.495099225447 -36.1172080300799 -175.495099225448 -0.00107850805119591 94.4736644083485 
! Gamma  !      0                438.232333500118 0                438.23226344713  
! Port Impedance  257.602617335437 0                257.591571853614 0                

27.184           -0.00112515844177377 94.1058928391608 -35.9343448541547 -175.925367438077 -35.934344854155 -175.925367438078 -0.00112522528042636 94.0434181453102 
! Gamma  !      0                438.477452200283 0                438.477382186457 
! Port Impedance  257.543878541095 0                257.532835595069 0                

27.193           -0.0011740545029047 93.6731684195003 -35.7504790181782 -176.358072350097 -35.7504790181785 -176.358072350098 -0.00117412521886306 93.6107364863418 
! Gamma  !      0                438.722515048772 0                438.722445074054 
! Port Impedance  257.485238161942 0                257.474197747452 0                

27.202           -0.0012252549052118 93.2379556056382 -35.5655978541086 -176.793264316346 -35.5655978541089 -176.793264316346 -0.00122532931943367 93.1755691135864 
! Gamma  !      0                438.967522139125 0                438.967452203463 
! Port Impedance  257.426695955912 0                257.415658068709 0                

27.211           -0.00127888869835546 92.8002025886208 -35.3796884500973 -177.230995097048 -35.3796884500976 -177.230995097049 -0.00127896662673028 92.7378643052463 
! Gamma  !      0                439.212473564653 0                439.212403667995 
! Port Impedance  257.368251681738 0                257.357216317582 0                

27.22            -0.00133509303368351 92.3598561017072 -35.1927376442641 -177.671317908458 -35.1927376442644 -177.671317908459 -0.00133517428723961 92.2975688850068 
! Gamma  !      0                439.457369418439 0                439.457299560732 
! Port Impedance  257.30990509895  0                257.298872253611 0                

27.229           -0.00139401371257067 91.9168613674086 -35.0047320182796 -178.114287475752 -35.0047320182799 -178.114287475753 -0.00139409809769888 91.8546281692179 
! Gamma  !      0                439.702209793335 0                439.702139974527 
! Port Impedance  257.25165596787  0                257.240625637139 0                

27.238           -0.00145580577600579 91.4711620421584 -34.8156578907496 -178.559960088288 -34.8156578907499 -178.559960088289 -0.00145589309467725 91.4089859117148 
! Gamma  !      0                439.946994781968 0                439.946925002007 
! Port Impedance  257.193504049611 0                257.182476229268 0                

27.247           -0.00152063413877392 91.0227001584912 -34.6255013103948 -179.008393657349 -34.6255013103951 -179.008393657349 -0.0015207241887617 90.9605842461551 
! Gamma  !      0                440.191724476736 0                440.19165473557  
! Port Impedance  257.135449106071 0                257.124423791922 0                

27.256           -0.00158867427192612 90.5714160645925 -34.4342480490171 -179.459647776512 -34.4342480490173 -179.459647776513 -0.00158876684699503 90.5093636257337 
! Gamma  !      0                440.436398969813 0                440.436329267389 
! Port Impedance  257.077490899933 0                257.066468087789 0                

27.265           -0.00166011293754225 90.1172483610813 -34.2418835942483 -179.913783784787 -34.2418835942485 -179.913783784788 -0.00166020782770032 90.0552627601401 
! Gamma  !      0                440.681018353144 0                440.680948689412 
! Port Impedance  257.019629194657 0                257.008608880342 0                

27.274           -0.00173514898017317 89.660133834872  -34.048393142071 179.629135167341 -34.0483931420713 179.62913516734  -0.00173524597185944 89.5982185496042 
! Gamma  !      0                440.925582718452 0                440.92551309336  
! Port Impedance  256.961863754482 0                256.95084593383  0                
