! Touchstone file from project Ka_PF
! Exported from HFSS 15.0.0
! Variables:
!  AA = 0.34in
!  BB = 0.145in
!  M01 = 0.164in
!  M11 = 0.2124in
!  M12 = 0.1158in
!  M22 = 0.2339in
!  PL = 0.3in
!  RR = 0.035in
!  TT = 0.04in
!Data is not renormalized
# GHZ S DB
! Modal data exported
! Port[1] = 1:1
! Port[2] = 2:1
26.5             -0.000222050342494376 120.424112437096 -42.9134396743243 -149.626323664645 -42.9134396743249 -149.626323664646 -0.000222050341202145 120.3232402332   
! Gamma  !      -0               419.682085929345 -0               419.682060555001 
! Port Impedance  262.307062487439 0                262.306914668162 0                

26.509           -0.000213375193827171 120.088339426636 -42.7829853783548 -149.962099042575 -42.7829853783554 -149.962099042576 -0.000213389500590877 119.987475063209 
! Gamma  !      0                419.931678067964 0                419.931652708703 
! Port Impedance  262.240189122359 0                262.24004133718  0                

26.518           -0.000205548084284194 119.751827016921 -42.6520674830565 -150.298612283534 -42.6520674830572 -150.298612283534 -0.000205576836352374 119.650971545339 
! Gamma  !      0                420.181206623431 0                420.181181279229 
! Port Impedance  262.173434877225 0                262.173287126086 0                

26.527           -0.000198564866320355 119.414564583771 -42.5206819650718 -150.635874054228 -42.5206819650724 -150.635874054228 -0.000198608179214735 119.313719068085 
! Gamma  !      0                420.430671708954 0                420.430646379791 
! Port Impedance  262.106799439075 0                262.106651721919 0                

26.536           -0.000192421918452233 119.076541309103 -42.3888247474539 -150.973895213854 -42.3888247474545 -150.973895213853 -0.000192479886494374 118.975706826311 
! Gamma  !      0                420.68007343745  0                420.680048123302 
! Port Impedance  262.040282496056 0                262.040134812824 0                

26.545           -0.000187116161740869 118.737746176353 -42.2564916986777 -151.31268681869 -42.2564916986782 -151.312686818689 -0.000187188858560487 118.636923816685 
! Gamma  !      0                420.929411921534 0                420.929386622382 
! Port Impedance  261.973883737416 0                261.973736088051 0                

26.554           -0.00018264507714611 118.398167965771 -42.1236786316275 -151.652260126827 -42.123678631628 -151.652260126825 -0.000182732556198039 118.297358832974 
! Gamma  !      0                421.17868727353  0                421.178661989351 
! Port Impedance  261.907602853501 0                261.907455237946 0                

26.563           -0.000179006723834453 118.057795249566 -41.9903813025612 -151.992626603024 -41.9903813025617 -151.992626603021 -0.000179109018892463 117.957000461207 
! Gamma  !      0                421.427899605465 0                421.427874336238 
! Port Impedance  261.841439535747 0                261.841291953944 0                

26.572           -0.000176199758427928 117.716616386925 -41.8565954100504 -152.33379792372 -41.8565954100509 -152.333797923716 -0.000176316884096843 117.615837074692 
! Gamma  !      0                421.677049029076 0                421.677023774779 
! Port Impedance  261.775393476681 0                261.775245928573 0                

26.581           -0.000174223455325166 117.374619518867 -41.7223165938953 -152.675785982187 -41.7223165938957 -152.675785982184 -0.000174355407528858 117.273856828887 
! Gamma  !      0                421.926135655804 0                421.926110416416 
! Port Impedance  261.709464369908 0                261.709316855438 0                

26.59            -0.000173077728079271 117.031792562953 -41.5875404340143 -153.018602893839 -41.5875404340147 -153.018602893836 -0.000173224484559252 116.931047656115 
! Gamma  !      0                422.175159596802 0                422.175134372302 
! Port Impedance  261.643651910114 0                261.643504429226 0                

26.599           -0.000172763151969472 116.688123207837 -41.4522624493073 -153.362261001695 -41.4522624493077 -153.362261001692 -0.000172924672757438 116.587397260125 
! Gamma  !      0                422.424120962932 0                422.424095753298 
! Port Impedance  261.577955793057 0                261.577808345693 0                

26.608           -0.000173280987745386 116.343598907648 -41.3164780964917 -153.706772882012 -41.3164780964921 -153.706772882008 -0.000173457215657925 116.242893110483 
! Gamma  !      0                422.673019864766 0                422.672994669977 
! Port Impedance  261.512375715562 0                261.512228301666 0                

26.617           -0.000174633206694365 115.998206876205 -41.1801827689106 -154.052151350082 -41.180182768911 -154.052151350077 -0.000174824067807407 115.8975224368   
! Gamma  !      0                422.92185641259  0                422.921831232625 
! Port Impedance  261.446911375519 0                261.446763995035 0                

26.626           -0.000176822517060926 115.651934081055 -41.043371795312 -154.398409466209 -41.0433717953125 -154.398409466204 -0.000177027921178398 115.551272222776 
! Gamma  !      0                423.1706307164   0                423.170605551239 
! Port Impedance  261.381562471875 0                261.381415124746 0                

26.635           -0.00017985239190318 115.304767237324 -40.9060404385995 -154.745560541872 -40.9060404385999 -154.745560541867 -0.000180072233024683 115.204129200064 
! Gamma  !      0                423.41934288591  0                423.419317735531 
! Port Impedance  261.316328704632 0                261.316181390802 0                

26.644           -0.000183727098469255 114.956692801386 -40.7681838945509 -155.093618146071 -40.7681838945513 -155.093618146065 -0.000183961255260633 114.856079841949 
! Gamma  !      0                423.667993030547 0                423.667967894927 
! Port Impedance  261.25120977484  0                261.251062494253 0                

26.653           -0.000188451729203734 114.607696964326 -40.6297972905075 -155.442596111868 -40.629797290508 -155.442596111863 -0.000188700065448344 114.507110356826 
! Gamma  !      0                423.916581259452 0                423.916556138572 
! Port Impedance  261.186205384596 0                261.186058137195 0                

26.662           -0.000194032234443003 114.257765645208 -40.4908756840299 -155.792508543144 -40.4908756840304 -155.792508543138 -0.000194294599493944 114.157206681475 
! Gamma  !      0                424.165107681486 0                424.165082575325 
! Port Impedance  261.121315237033 0                261.121168022764 0                

26.671           -0.000200475456911464 113.906884484123 -40.3514140615208 -156.143369821549 -40.3514140615212 -156.143369821543 -0.000200751686157304 113.806354474123 
! Gamma  !      0                424.413572405227 0                424.413547313764 
! Port Impedance  261.056539036324 0                261.056391855131 0                

26.68            -0.000207789168157593 113.555038835022 -40.2114073368139 -156.495194613689 -40.2114073368144 -156.495194613683 -0.000208079083448547 113.454539107291 
! Gamma  !      0                424.661975538971 0                424.661950462185 
! Port Impedance  260.991876487669 0                260.991729339496 0                

26.689           -0.00021598210698201 113.202213758324 -40.0708503497281 -156.847997878529 -40.0708503497286 -156.847997878523 -0.000216285517079262 113.101745660413 
! Gamma  !      0                424.910317190735 0                424.910292128606 
! Port Impedance  260.927327297296 0                260.927180182088 0                

26.698           -0.00022506402003223 112.848394013279 -39.9297378645845 -157.201794875035 -39.929737864585 -157.201794875029 -0.000225380721046642 112.747958912215 
! Gamma  !      0                425.158597468258 0                425.158572420764 
! Port Impedance  260.862891172454 0                260.862744090156 0                

26.707           -0.000235045704657792 112.493564050093 -39.7880645686867 -157.556601170063 -39.7880645686871 -157.556601170057 -0.00023537548048186 112.393163332851 
! Gamma  !      0                425.406816478998 0                425.406791446119 
! Port Impedance  260.798567821411 0                260.798420771968 0                

26.716           -0.000245939054183075 112.137708001794 -39.6458250707629 -157.912432646499 -39.6458250707633 -157.912432646492 -0.000246281676909378 112.037343075788 
! Gamma  !      0                425.654974330139 0                425.654949311854 
! Port Impedance  260.734356953446 0                260.734209936802 0                

26.725           -0.000257757105731067 111.780809675836 -39.5030138993679 -158.269305511666 -39.5030138993683 -158.26930551166 -0.000258112336085178 111.680481969421 
! Gamma  !      0                425.903071128585 0                425.903046124874 
! Port Impedance  260.670258278846 0                260.670111294947 0                

26.734           -0.000270514090738078 111.422852545426 -39.3596255012442 -158.627236306008 -39.3596255012447 -158.627236306002 -0.000270881678497015 111.322563508417 
! Gamma  !      0                426.151106980969 0                426.151081991811 
! Port Impedance  260.606271508903 0                260.606124557695 0                

26.743           -0.000284225488374669 111.063819740565 -39.2156542396424 -158.986241912052 -39.2156542396429 -158.986241912045 -0.000284605172780515 110.963570844773 
! Gamma  !      0                426.399081993648 0                426.399057019022 
! Port Impedance  260.542396355908 0                260.542249437335 0                

26.752           -0.000298908081984861 110.703694038793 -39.0710943925959 -159.346339563672 -39.0710943925963 -159.346339563665 -0.000299299592149703 110.603486778577 
! Gamma  !      0                426.646996272703 0                426.64697131259  
! Port Impedance  260.478632533147 0                260.478485647156 0                

26.761           -0.000314580018765679 110.342457855625 -38.925940151153 -159.707546855661 -38.9259401511535 -159.707546855654 -0.000314983074082336 110.242293748465 
! Gamma  !      0                426.894849923948 0                426.894824978326 
! Port Impedance  260.414979754897 0                260.414832901433 0                

26.77            -0.000331260872891737 109.980093234664 -38.7801856175623 -160.069881753624 -38.7801856175628 -160.069881753618 -0.000331675183438699 109.879973821745 
! Gamma  !      0                427.14264305292  0                427.14261812177  
! Port Impedance  260.351437736421 0                260.35129091543  0                

26.779           -0.000348971712264528 109.616581837385 -38.6338248034101 -160.433362604201 -38.6338248034106 -160.433362604194 -0.000349396979200286 109.516508684207 
! Gamma  !      0                427.39037576489  0                427.390350848191 
! Port Impedance  260.288006193965 0                260.287859405393 0                

26.788           -0.000367735169161595 109.251904932564 -38.4868516277091 -160.798008145637 -38.4868516277096 -160.79800814563 -0.00036817108511704 109.151879629569 
! Gamma  !      0                427.638048164857 0                427.638023262589 
! Port Impedance  260.224684844752 0                260.224538088544 0                

26.797           -0.000387575514973976 108.886043385353 -38.3392599149371 -161.163837518721 -38.3392599149376 -161.163837518714 -0.000388021764439981 108.786067548569 
! Gamma  !      0                427.885660357552 0                427.885635469694 
! Port Impedance  260.161473406978 0                260.161326683082 0                

26.806           -0.000408518739323575 108.518977645972 -38.1910433930226 -161.530870278089 -38.1910433930231 -161.530870278082 -0.00040897499904532 108.419052917686 
! Gamma  !      0                428.133212447437 0                428.13318757397  
! Port Impedance  260.098371599809 0                260.098224908171 0                

26.815           -0.000430592633855975 108.150687738018 -38.0421956912774 -161.899126403929 -38.0421956912779 -161.899126403922 -0.00043105857319835 108.050815787462 
! Gamma  !      0                428.380704538711 0                428.380679679614 
! Port Impedance  260.035379143377 0                260.035232483943 0                

26.824           -0.0004538268809175 107.781153246354 -37.8927103382735 -162.268626314083 -37.892710338274 -162.268626314076 -0.00045430216226714 107.681335770419 
! Gamma  !      0                428.628136735302 0                428.628111890555 
! Port Impedance  259.972495758774 0                259.97234913149  0                

26.833           -0.000478253147564496 107.410353304584 -37.7425807596625 -162.639390876583 -37.742580759663 -162.639390876576 -0.000478737426674937 107.310592028558 
! Gamma  !      0                428.875509140877 0                428.87548431046  
! Port Impedance  259.909721168047 0                259.909574572861 0                

26.842           -0.000503905185115697 107.038266582077 -37.5918002759359 -163.011441422621 -37.5918002759364 -163.011441422614 -0.000504398111495909 106.938563260408 
! Gamma  !      0                429.122821858836 0                429.12279704273  
! Port Impedance  259.847055094199 0                259.846908531057 0                

26.851           -0.000530818934677431 106.66487127054  -37.4403621001252 -163.384799759987 -37.4403621001257 -163.384799759981 -0.000531320151951433 106.565227687619 
! Gamma  !      0                429.370074992319 0                429.370050190504 
! Port Impedance  259.784497261178 0                259.784350730028 0                

26.86            -0.000559032639024315 106.290145070096 -37.2882593354373 -163.75948818698 -37.2882593354377 -163.759488186974 -0.00055954178528307 106.190563041074 
! Gamma  !      0                429.617268644202 0                429.617243856657 
! Port Impedance  259.722047393879 0                259.721900894668 0                

26.869           -0.000588586961204616 105.914065174873 -37.1354849728267 -164.135529506828 -37.1354849728272 -164.135529506822 -0.000589103669385895 105.8145465465   
! Gamma  !      0                429.864402917098 0                429.864378143804 
! Port Impedance  259.659705218136 0                259.659558750811 0                

26.878           -0.000619525110388074 105.536608258061 -36.9820318884998 -164.51294704262 -36.9820318885004 -164.512947042614 -0.000620049008608093 105.437154909558 
! Gamma  !      0                430.111477913363 0                430.1114531543   
! Port Impedance  259.597470460719 0                259.597324025227 0                

26.887           -0.000651892975345814 105.157750456432 -36.8278928413494 -164.891764652795 -36.8278928413499 -164.891764652789 -0.000652423687261742 105.058364300392 
! Gamma  !      0                430.358493735092 0                430.358468990239 
! Port Impedance  259.53534284933  0                259.53519644562  0                

26.896           -0.000685739266125676 104.77746735428  -36.6730604703182 -165.272006747189 -36.6730604703187 -165.272006747183 -0.000686276411272094 104.678150337596 
! Gamma  !      0                430.605450484119 0                430.605425753458 
! Port Impedance  259.473322112601 0                259.473175740619 0                

26.905           -0.000721115664443976 104.395733966775 -36.5175272916879 -165.653698303682 -36.5175272916884 -165.653698303676 -0.000721658858597308 104.296488071608 
! Gamma  !      0                430.852348262024 0                430.852323545535 
! Port Impedance  259.411407980085 0                259.41126163978  0                

26.914           -0.000758076983413199 104.012524722692 -36.3612856962925 -166.036864885464 -36.361285696293 -166.036864885458 -0.000758625838893451 103.913351967467 
! Gamma  !      0                431.099187170127 0                431.09916246779  
! Port Impedance  259.349600182257 0                259.349453873576 0                

26.923           -0.000796681337136583 103.627813446493 -36.2043279466516 -166.421532658948 -36.2043279466521 -166.421532658942 -0.00079723546318045 103.528715886934 
! Gamma  !      0                431.345967309495 0                431.34594262129  
! Port Impedance  259.287898450508 0                259.2877521734   0                

26.932           -0.000836990320978421 103.241573339732 -36.0466461740232 -166.807728412355 -36.0466461740237 -166.80772841235 -0.000837549324047774 103.142553069928 
! Gamma  !      0                431.592688780936 0                431.592664106844 
! Port Impedance  259.226302517142 0                259.226156271554 0                

26.941           -0.0008790692031118 102.85377696175  -35.8882323753713 -167.195479575019 -35.8882323753718 -167.195479575013 -0.000879632687233031 102.754836115267 
! Gamma  !      0                431.839351685006 0                431.839327025009 
! Port Impedance  259.164812115368 0                259.164665901249 0                

26.95            -0.000922987128180957 102.464396209631 -35.7290784102468 -167.584814237413 -35.7290784102473 -167.584814237407 -0.000923554695265034 102.365536960659 
! Gamma  !      0                432.085956122009 0                432.085931476086 
! Port Impedance  259.103426979303 0                259.103280796601 0                

26.959           -0.000968817333881973 102.073402297385 -35.5691759975782 -167.975761171963 -35.5691759975787 -167.975761171958 -0.000969388584047385 101.974626861927 
! Gamma  !      0                432.332502191993 0                432.332477560124 
! Port Impedance  259.042146843964 0                259.042000692627 0                

26.968           -0.00101663738138918 101.680765734317 -35.4085167123687 -168.368349854667 -35.4085167123692 -168.368349854662 -0.00101721191328102 101.582076371426 
! Gamma  !      0                432.578989994756 0                432.578965376923 
! Port Impedance  258.980971445262 0                258.98082532524  0                

26.977           -0.00106652940053568 101.286456302559 -35.2470919822983 -168.762610487552 -35.2470919822988 -168.762610487546 -0.00106710681164567 101.18785531561  
! Gamma  !      0                432.825419629846 0                432.825395026029 
! Port Impedance  258.919900520003 0                258.919754431245 0                

26.986           -0.00111858035082356 100.890443033701 -35.0848930842245 -169.158574022026 -35.084893084225 -169.158574022021 -0.00111916023778986 100.791932771724 
! Gamma  !      0                433.071791196559 0                433.071766606739 
! Port Impedance  258.858933805883 0                258.858787748336 0                

26.995           -0.00117288229937922 100.492694184506 -34.9219111405818 -169.556272183157 -34.9219111405823 -169.556272183152 -0.00117346425830451 100.394277043555 
! Gamma  !      0                433.318104793944 0                433.318080218102 
! Port Impedance  258.79807104148  0                258.797925015095 0                

27.004           -0.0012295327170016 100.093177211644 -34.7581371156735 -169.955737494914 -34.7581371156741 -169.955737494909 -0.00123011634375958 99.9948556362282 
! Gamma  !      0                433.564360520799 0                433.564335958915 
! Port Impedance  258.737311966256 0                258.737165970981 0                

27.013           -0.00128863479364622 99.6918587454134 -34.5935618118541 -170.357003306436 -34.5935618118546 -170.357003306431 -0.00128921968417851 99.5936352299762 
! Gamma  !      0                433.810558475676 0                433.810533927732 
! Port Impedance  258.67665632055  0                258.676510356334 0                

27.022           -0.00135029777472033 99.2887045623912 -34.4281758655973 -170.760103819363 -34.4281758655978 -170.760103819358 -0.00135088352534103 99.1905816528461 
! Gamma  !      0                434.056698756881 0                434.056674222857 
! Port Impedance  258.616103845574 0                258.615957912368 0                

27.031           -0.00141463731965104 98.8836795569627 -34.2619697434467 -171.165074116282 -34.2619697434472 -171.165074116277 -0.00141522352734645 98.78565985229   
! Gamma  !      0                434.302781462473 0                434.30275694235  
! Port Impedance  258.555654283411 0                258.555508381163 0                

27.04            -0.00148177588439787 98.4767477116811 -34.0949337378446 -171.571950190351 -34.0949337378451 -171.571950190346 -0.00148236214710886 98.3788338655844 
! Gamma  !      0                434.548806690266 0                434.548782184026 
! Port Impedance  258.495307377011 0                258.495161505672 0                

27.049           -0.00155184312959583 98.0678720663918 -33.9270579628343 -171.980768976153 -33.9270579628348 -171.980768976148 -0.00155242904653203 97.9700667890191 
! Gamma  !      0                434.79477453783  0                434.794750045454 
! Port Impedance  258.435062870186 0                258.434917029704 0                

27.058           -0.00162497635626054 97.6570146860655 -33.7583323496325 -172.391568381832 -33.758332349633 -172.391568381827 -0.00162556152816821 97.5593207457977 
! Gamma  !      0                435.040685102493 0                435.040660623961 
! Port Impedance  258.374920507607 0                258.374774697933 0                

27.067           -0.00170132097103641 97.2441366272745 -33.5887466420665 -172.804387322598 -33.5887466420671 -172.804387322593 -0.00170190500049135 97.1465568525839 
! Gamma  !      0                435.286538481337 0                435.286514016631 
! Port Impedance  258.3148800348   0                258.314734255884 0                

27.076           -0.00178103098320682 96.8291979032427 -33.4182903918724 -173.219265755646 -33.4182903918729 -173.219265755642 -0.0017816134749015 96.7317351846247 
! Gamma  !      0                435.532334771207 0                435.532310320307 
! Port Impedance  258.254941198146 0                258.254795449937 0                

27.085           -0.00186426953584586 96.4121574473991 -33.2469529538478 -173.636244716573 -33.2469529538484 -173.636244716569 -0.00186485009687269 96.3148147393818 
! Gamma  !      0                435.778074068702 0                435.77804963159  
! Port Impedance  258.195103744869 0                258.194958027319 0                

27.094           -0.00195120947362556 95.9929730753573 -33.0747234808568 -174.055366357365 -33.0747234808573 -174.055366357361 -0.00195178771375524 95.8957533985908 
! Gamma  !      0                436.023756470184 0                436.023732046842 
! Port Impedance  258.135367423043 0                258.135221736101 0                

27.103           -0.00204203395013038 95.57160144524   -32.9015909186784 -174.476673986043 -32.9015909186789 -174.476673986039 -0.00204260948209514 95.4745078886709 
! Gamma  !      0                436.269382071776 0                436.269357662184 
! Port Impedance  258.075731981579 0                258.075586325196 0                

27.112           -0.00213693707758879 95.1479980162645 -32.7275440006971 -174.900212108037 -32.7275440006976 -174.900212108033 -0.00213750951734339 95.051033739398  
! Gamma  !      0                436.51495096936  0                436.5149265735   
! Port Impedance  258.016197170228 0                258.016051544355 0                

27.121           -0.00223612462232689 94.7221170054961 -32.5525712424267 -175.326026469397 -32.5525712424273 -175.326026469393 -0.00223669358933557 94.6252852407518 
! Gamma  !      0                436.760463258581 0                436.760438876435 
! Port Impedance  257.956762739575 0                257.956617144162 0                

27.13            -0.00233981474943831 94.2939113426744 -32.3766609358634 -175.754164101924 -32.3766609358639 -175.75416410192 -0.00234037986695218 94.1972153978387 
! Gamma  !      0                437.00591903485  0                437.005894666399 
! Port Impedance  257.897428441033 0                257.897282876031 0                

27.139           -0.00244823882052227 93.8633326230113 -32.1998011436619 -176.184673370331 -32.1998011436624 -176.184673370327 -0.00244879971582664 93.7667758837923 
! Gamma  !      0                437.251318393338 0                437.251294038563 
! Port Impedance  257.838194026844 0                257.838048492204 0                

27.148           -0.00256164224854959 93.4303310578514 -32.0219796931288 -176.617604021534 -32.0219796931294 -176.61760402153 -0.00256219855326152 93.3339169905402 
! Gamma  !      0                437.496661428982 0                437.496637087865 
! Port Impedance  257.779059250075 0                257.778913745747 0                

27.157           -0.00268028541441941 92.9948554230788 -31.8431841700262 -177.053007236198 -31.8431841700267 -177.053007236194 -0.00268083676473504 92.8985875773242 
! Gamma  !      0                437.741948236486 0                437.741923909008 
! Port Impedance  257.720023864609 0                257.719878390546 0                

27.166           -0.00280444465003828 92.5568530051507 -31.6634019121794 -177.49093568265 -31.6634019121799 -177.490935682646 -0.00280499068701478 92.4607350168506 
! Gamma  !      0                437.987178910316 0                437.987154596459 
! Port Impedance  257.66108762515  0                257.660942181301 0                

27.175           -0.00293441329322584 92.116269544626  -31.4826200028829 -177.931443573298 -31.4826200028834 -177.931443573294 -0.00293495366302963 92.0203051389439 
! Gamma  !      0                438.23235354471  0                438.232329244456 
! Port Impedance  257.602250287211 0                257.60210487353  0                

27.184           -0.00307050282016614 91.6730491770518 -31.3008252640963 -178.374586723681 -31.3008252640967 -178.374586723677 -0.00307103717435961 91.577242171563  
! Gamma  !      0                438.47747223367  0                438.477447947    
! Port Impedance  257.543511607118 0                257.543366223555 0                

27.193           -0.003213044061723 91.2271343710623 -31.1180042494245 -178.820422614315 -31.1180042494249 -178.820422614311 -0.00321357205750391 91.1314886790369 
! Gamma  !      0                438.722535070968 0                438.722510797864 
! Port Impedance  257.484871342002 0                257.484725988509 0                

27.202           -0.00336238851030741 90.7784658635309 -30.9341432368742 -179.269010455468 -30.9341432368747 -179.269010455464 -0.0033629098107955 90.6829854973611 
! Gamma  !      0                438.967542150146 0                438.96751789059  
! Port Impedance  257.426329249797 0                257.426183926326 0                

27.211           -0.00351890972484358 90.3269825916134 -30.7492282213797 -179.720411255052 -30.7492282213802 -179.720411255049 -0.00351942399932563 90.2316716663923 
! Gamma  !      0                439.212493564514 0                439.212469318488 
! Port Impedance  257.367885089238 0                257.36773979574  0                

27.22            -0.00368300484174395 89.872621621503  -30.5632449070899 179.825312110206 -30.5632449070903 179.825312110209 -0.00368351176594775 89.7774843587621 
! Gamma  !      0                439.457389407154 0                439.45736517464  
! Port Impedance  257.309538619854 0                257.309393356281 0                

27.229           -0.00385509620077904 89.4153180737092 -30.3761786994094 179.368094820124 -30.3761786994099 179.368094820127 -0.00385559545713179 89.3203588053247 
! Gamma  !      0                439.70222977092  0                439.702205551899 
! Port Impedance  257.251289601968 0                257.251144368272 0                

27.238           -0.00403563309540256 88.9550050446593 -30.1880146967858 178.907870032748 -30.1880146967862 178.907870032751 -0.00403612437329887 88.8602282169345 
! Gamma  !      0                439.947014748438 0                439.946990542892 
! Port Impedance  257.193137796693 0                257.192992592828 0                

27.247           -0.00422509365791341 88.4916135244124 -29.9987376822349 178.444568802154 -29.9987376822353 178.444568802157 -0.00422557665396491 88.3970237023465 
! Gamma  !      0                440.191744432105 0                440.191720240017 
! Port Impedance  257.135082965929 0                257.134937791845 0                

27.256           -0.00442398689095588 88.0250723102501 -29.8083321145954 177.978119992129 -29.8083321145958 177.978119992132 -0.00442446130927351 87.9306741820033 
! Gamma  !      0                440.436418914096 0                440.436394735447 
! Port Impedance  257.077124872358 0                257.076979728009 0                

27.265           -0.00463285485773503 87.5553079159073 -29.616782119506 177.508450185507 -29.6167821195064 177.50845018551  -0.00463332041017937 87.4611062974732 
! Gamma  !      0                440.681038286356 0                440.681014121129 
! Port Impedance  257.019263279442 0                257.019118164779 0                

27.274           -0.00485227504460555 87.0822444761795 -29.4240714800954 177.035483588874 -29.4240714800958 177.035483588876 -0.00485273145105547 86.9882443162753 
! Gamma  !      0                440.925602640608 0                440.925578488784 
! Port Impedance  256.96149795142  0                256.961352866396 0                
