! Touchstone file from project Ka_PF
! Exported from HFSS 15.0.0
! Variables:
!  AA = 0.34in
!  BB = 0.145in
!  M01 = 0.1679in
!  M11 = 0.2102in
!  M12 = 0.116in
!  M22 = 0.2336in
!  PL = 0.3in
!  RR = 0.035in
!  TT = 0.04in
!Data is not renormalized
# GHZ S DB
! Modal data exported
! Port[1] = 1:1
! Port[2] = 2:1
26.5             -0.00029947497562007 115.756153478585 -41.6143874714626 -154.389825455229 -41.6143874714633 -154.389825455228 -0.000299474974574703 115.464195610962 
! Gamma  !      -0               419.682060555941 -0               419.682047173974 
! Port Impedance  262.308282510268 0                262.300618034611 0                

26.509           -0.000308193606575029 115.405362031146 -41.4852730519769 -154.740791141304 -41.4852730519773 -154.740791141304 -0.000308191670918865 115.113054868169 
! Gamma  !      0                419.931652709641 0                419.931639335629 
! Port Impedance  262.241408832973 0                262.233746199609 0                

26.518           -0.000317257175125008 115.05372401406  -41.3557081983747 -155.092603627894 -41.3557081983751 -155.092603627893 -0.000317253541731383 114.761067196797 
! Gamma  !      0                420.181181280166 0                420.181167914097 
! Port Impedance  262.17465427618  0                262.166993481912 0                

26.527           -0.000326674860316161 114.701227538999 -41.2256891255558 -155.445274793482 -41.225689125556 -155.445274793482 -0.00032666975212871 114.408220721359 
! Gamma  !      0                420.430646380726 0                420.430633022589 
! Port Impedance  262.108018526928 0                262.100359568568 0                

26.536           -0.000336456392164639 114.347860505365 -41.0952119994402 -155.798816728705 -41.0952119994402 -155.798816728705 -0.00033645001861196 114.054503354673 
! Gamma  !      0                420.680048124237 0                420.680034774019 
! Port Impedance  262.04150127336  0                262.033844147728 0                

26.545           -0.00034661207261156 113.993610595372 -40.9642729361105 -156.15324174124 -40.9642729361104 -156.15324174124 -0.000346604630025738 113.699902792972 
! Gamma  !      0                420.929386623316 0                420.929373281006 
! Port Impedance  261.975102204724 0                261.967446908648 0                

26.554           -0.000357152797624258 113.638465268999 -40.8328680009357 -156.508562360849 -40.8328680009355 -156.508562360849 -0.000357144469653595 113.344406510865 
! Gamma  !      0                421.178661990284 0                421.178648655872 
! Port Impedance  261.908821011364 0                261.90116754168  0                

26.563           -0.000368090080430366 113.282411758787 -40.7009932076749 -156.864791344554 -40.7009932076746 -156.864791344554 -0.000368081038433797 112.988001756164 
! Gamma  !      0                421.427874337171 0                421.427861010644 
! Port Impedance  261.842657384716 0                261.835005738267 0                

26.572           -0.000379436075973521 112.925437064491 -40.5686445175616 -157.221941681968 -40.5686445175612 -157.221941681968 -0.000379426479428516 112.630675544557 
! Gamma  !      0                421.677023775711 0                421.677010457058 
! Port Impedance  261.776611017302 0                261.768961190942 0                

26.581           -0.000391203606679453 112.567527947577 -40.4358178383675 -157.580026600783 -40.435817838367 -157.580026600783 -0.00039119360356582 112.272414654128 
! Gamma  !      0                421.926110417347 0                421.926097106557 
! Port Impedance  261.71068160273  0                261.703033593317 0                

26.59            -0.000403406189557627 112.208670925558 -40.3025090234455 -157.939059572414 -40.3025090234449 -157.939059572414 -0.000403395916755777 111.913205619718 
! Gamma  !      0                422.175134373232 0                422.175121070294 
! Port Impedance  261.644868835682 0                261.637222640085 0                

26.599           -0.000416058064757112 111.848852266168 -40.1687138707512 -158.299054317807 -40.1687138707505 -158.299054317807 -0.000416047648418354 111.553034727121 
! Gamma  !      0                422.424095754227 0                422.42408245913  
! Port Impedance  261.579172411914 0                261.571528027009 0                

26.608           -0.000429174225618238 111.488057981357 -40.0344281218422 -158.660024813424 -40.0344281218415 -158.660024813424 -0.000429163781548574 111.191888007109 
! Gamma  !      0                422.672994670906 0                422.672981383638 
! Port Impedance  261.513592028252 0                261.505949450922 0                

26.617           -0.000442770450348381 111.126273821115 -39.8996474608551 -159.0219852974  -39.8996474608543 -159.021985297401 -0.000442760084372053 110.82975122928  
! Gamma  !      0                422.921831233553 0                422.921817954103 
! Port Impedance  261.448127382582 0                261.44048660972  0                

26.626           -0.000456863335357671 110.763485267109 -39.7643675134589 -159.384950275889 -39.7643675134581 -159.384950275889 -0.000456853143697098 110.466609895727 
! Gamma  !      0                423.170605552166 0                423.170592280523 
! Port Impedance  261.382778173852 0                261.375139202356 0                

26.635           -0.000471470330418665 110.399677526134 -39.6285838457846 -159.748934529591 -39.6285838457838 -159.748934529591 -0.000471460400023268 110.10244923451  
! Gamma  !      0                423.419317736457 0                423.419304472609 
! Port Impedance  261.31754410206  0                261.309906928838 0                

26.644           -0.000486609775644309 110.034835523356 -39.4922919633305 -160.113953120486 -39.4922919633297 -160.113953120487 -0.000486600184578163 109.737254192942 
! Gamma  !      0                423.667967895854 0                423.66795463979  
! Port Impedance  261.252424868257 0                261.244789490225 0                

26.653           -0.000502300940533148 109.668943895369 -39.3554873098424 -160.480021398766 -39.3554873098416 -160.480021398767 -0.000502291758307663 109.371009430662 
! Gamma  !      0                423.916556139498 0                423.916542891208 
! Port Impedance  261.187420174537 0                261.179786588616 0                

26.662           -0.000518564065067441 109.301986983021 -39.2181652661674 -160.847155009977 -39.2181652661666 -160.847155009978 -0.000518555352987543 109.003699312507 
! Gamma  !      0                424.16508257625  0                424.165069335723 
! Port Impedance  261.122529724033 0                261.114897927155 0                

26.671           -0.000535420403064927 108.933948824035 -39.0803211490817 -161.215369902385 -39.0803211490808 -161.215369902386 -0.000535412214561744 108.635307901158 
! Gamma  !      0                424.413547314688 0                424.413534081912 
! Port Impedance  261.057753220914 0                261.050123210018 0                

26.68            -0.000552892267849045 108.564813145395 -38.9419502100909 -161.584682334563 -38.94195021009  -161.584682334563 -0.000552884648817401 108.265818949568 
! Gamma  !      0                424.661950463109 0                424.661937238073 
! Port Impedance  260.993090370382 0                260.985462142413 0                

26.689           -0.000571003080447994 108.194563355502 -38.8030476342022 -161.955108883215 -38.8030476342013 -161.955108883215 -0.000570996069575238 107.895215893149 
! Gamma  !      0                424.910292129529 0                424.910278912223 
! Port Impedance  260.928540878662 0                260.920914430573 0                

26.698           -0.000589777420401957 107.823182536083 -38.6636085386677 -162.326666451247 -38.6636085386669 -162.326666451248 -0.000589771049488099 107.523481841717 
! Gamma  !      0                425.158572421687 0                425.158559212099 
! Port Impedance  260.864104453002 0                260.856479781756 0                

26.707           -0.000609241079362866 107.450653433844 -38.5236279716989 -162.699372276085 -38.5236279716981 -162.699372276085 -0.00060923537363108 107.150599571195 
! Gamma  !      0                425.406791447042 0                425.406778245162 
! Port Impedance  260.799780801668 0                260.792157904232 0                

26.716           -0.000629421117639368 107.076958451868 -38.3831009111493 -163.073243938257 -38.3831009111485 -163.073243938257 -0.000629416096055163 106.776551515041 
! Gamma  !      0                425.654949312776 0                425.654936118592 
! Port Impedance  260.735569633937 0                260.727948507289 0                

26.725           -0.000650345923875278 106.702079640735 -38.2420222631672 -163.448299370248 -38.2420222631664 -163.448299370248 -0.000650341599456036 106.401319755415 
! Gamma  !      0                425.903046125796 0                425.903032939298 
! Port Impedance  260.671470660096 0                260.66385130122  0                

26.734           -0.000672045278023862 106.325998689359 -38.1003868608152 -163.82455686564 -38.1003868608144 -163.82455686564 -0.000672041658124255 106.02488601406  
! Gamma  !      0                426.151081992732 0                426.15106881391  
! Port Impedance  260.607483591435 0                260.599865997323 0                

26.743           -0.000694550417827529 105.948696915535 -37.9581894626579 -164.202035088531 -37.9581894626571 -164.202035088532 -0.000694547504450982 105.647231642896 
! Gamma  !      0                426.399057019942 0                426.399043848784 
! Port Impedance  260.543608140245 0                260.535992307895 0                

26.752           -0.000717894109020272 105.570155256179 -37.8154247513144 -164.58075308328 -37.8154247513136 -164.58075308328 -0.000717891899097632 105.268337614305 
! Gamma  !      0                426.64697131351  0                426.646958150005 
! Port Impedance  260.479844019809 0                260.472229946228 0                

26.761           -0.000742110719443259 105.190354257254 -37.6720873319765 -164.960730284545 -37.6720873319758 -164.960730284545 -0.000742109205133647 104.888184511108 
! Gamma  !      0                426.894824979245 0                426.894811823383 
! Port Impedance  260.416190944403 0                260.408578626606 0                

26.77            -0.000767236297362329 104.809274063365 -37.5281717308915 -165.341986527665 -37.5281717308908 -165.341986527664 -0.000767235466310589 104.506752516215 
! Gamma  !      0                427.142618122689 0                427.142604974458 
! Port Impedance  260.352648629289 0                260.345038064297 0                

26.779           -0.000793308654175941 104.426894407012 -37.3836723938069 -165.724542059371 -37.3836723938063 -165.724542059371 -0.000793308489804814 104.124021401927 
! Gamma  !      0                427.390350849109 0                427.3903377085   
! Port Impedance  260.289216790712 0                260.281607975553 0                

26.788           -0.000820367451833311 104.043194597496 -37.2385836843784 -166.108417548861 -37.2385836843777 -166.108417548861 -0.000820367933614384 103.739970518898 
! Gamma  !      0                427.638023263507 0                427.638010130508 
! Port Impedance  260.225895145892 0                260.218288077595 0                

26.797           -0.000848454295242979 103.658153509445 -37.0928998825378 -166.493634099232 -37.0928998825372 -166.493634099232 -0.000848455398949318 103.354578784725 
! Gamma  !      0                427.885635470611 0                427.885622345213 
! Port Impedance  260.162683413026 0                260.155078088651 0                

26.806           -0.000877612829937658 103.271749570967 -36.9466151828221 -166.880213259302 -36.9466151828215 -166.880213259302 -0.000877614527912827 102.967824672155 
! Gamma  !      0                428.133187574887 0                428.133174457078 
! Port Impedance  260.099581311278 0                260.091977727867 0                

26.815           -0.000907888845373136 102.883960751399 -36.7997236926598 -167.268177035825 -36.7997236926593 -167.268177035825 -0.000907891106783827 102.579686196902 
! Gamma  !      0                428.38067968053  0                428.380666570299 
! Port Impedance  260.036588560777 0                260.028986715389 0                

26.824           -0.000939330384171573 102.494764548647 -36.6522194306162 -167.65754790612 -36.6522194306157 -167.65754790612 -0.000939333175250585 102.190140905049 
! Gamma  !      0                428.628111891471 0                428.628098788808 
! Port Impedance  259.973704882615 0                259.966104772316 0                

26.833           -0.000971987857692913 102.104137976085 -36.504096324594 -168.04834883113 -36.5040963245936 -168.04834883113 -0.000971991142002391 101.799165860018 
! Gamma  !      0                428.875484311375 0                428.87547121627  
! Port Impedance  259.910929998839 0                259.903331620701 0                

26.842           -0.0010059141683539 101.712057549022 -36.35534820999  -168.440603268924 -36.3553482099896 -168.440603268924 -0.00100591790700034 101.406737629106 
! Gamma  !      0                429.122797043645 0                429.122783956087 
! Port Impedance  259.848263632448 0                259.840666983551 0                

26.851           -0.0010411648390564 101.318499270686 -36.2059688278046 -168.834335188676 -36.2059688278043 -168.834335188675 -0.00104116899094233 101.012832269549 
! Gamma  !      0                429.370050191418 0                429.370037111396 
! Port Impedance  259.785705507391 0                259.778110584823 0                

26.86            -0.00107779815024218 100.923438617732 -36.0559518227048 -169.229569085109 -36.0559518227044 -169.229569085109 -0.0010778026722985 100.617425314098 
! Gamma  !      0                429.61724385757  0                429.617230785074 
! Port Impedance  259.72325534856  0                259.715662149416 0                

26.869           -0.00111587528503148 100.526850525243 -35.9052907410375 -169.626329993464 -35.9052907410372 -169.626329993463 -0.00111588013242575 100.220491756109 
! Gamma  !      0                429.864378144717 0                429.864365079737 
! Port Impedance  259.660912881789 0                259.65332140317  0                

26.878           -0.00115546048294162 100.128709371202 -35.7539790287938 -170.024643504976 -35.7539790287935 -170.024643504976 -0.00115546560930945 99.8220060340972 
! Gamma  !      0                430.111453155213 0                430.111440097737 
! Port Impedance  259.598677833846 0                259.59108807286  0                

26.887           -0.00119662120275615 99.7289889604174 -35.60201002952  -170.424535782913 -35.6020100295198 -170.424535782913 -0.00119662656042103 99.4219420157452 
! Gamma  !      0                430.358468991151 0                430.358455941171 
! Port Impedance  259.536549932433 0                259.528961886197 0                

26.896           -0.00123942829516336 99.3276625078758 -35.4493769821771 -170.826033579169 -35.4493769821769 -170.826033579169 -0.00123943383533241 99.0202729813531 
! Gamma  !      0                430.60542575437  0                430.605412711873 
! Port Impedance  259.474528906179 0                259.466942571815 0                

26.905           -0.00128395618572182 98.924702621498  -35.2960730189445 -171.229164251465 -35.2960730189443 -171.229164251464 -0.00128396185870364 98.6169716066876 
! Gamma  !      0                430.852323546446 0                430.852310511423 
! Port Impedance  259.412614484636 0                259.405029859275 0                

26.914           -0.00133028306890115 98.5200812842753 -35.1420911629677 -171.63395578116 -35.1420911629676 -171.63395578116 -0.00133028882430449 98.2120099452178 
! Gamma  !      0                431.099162468701 0                431.099149441142 
! Port Impedance  259.350806398278 0                259.343223479057 0                

26.923           -0.00137849111389022 98.1137698357582 -34.987424326049 -172.040436791715 -34.987424326049 -172.040436791715 -0.00137849690080807 97.8053594097073 
! Gamma  !      0                431.3459426222   0                431.345929602094 
! Port Impedance  259.289104378496 0                259.281523162559 0                

26.932           -0.00142866668293028 97.7057389528665 -34.8320653062777 -172.448636567823 -34.8320653062776 -172.448636567823 -0.00142867245014625 97.3969907531337 
! Gamma  !      0                431.592664107754 0                431.592651095091 
! Port Impedance  259.22750815759  0                259.219928642088 0                

26.941           -0.00148090056304783 97.2959586299973 -34.6760067855991 -172.858585075249 -34.6760067855991 -172.858585075249 -0.00148090625921254 96.9868740489084 
! Gamma  !      0                431.839327025918 0                431.839314020688 
! Port Impedance  259.166017468771 0                259.158439650862 0                

26.95            -0.00153528821203613 96.8843981583952 -34.5192413273219 -173.2703129814  -34.5192413273219 -173.2703129814  -0.00153529378585714 96.5749786703654 
! Gamma  !      0                432.085931476994 0                432.085918479186 
! Port Impedance  259.104632046153 0                259.097055923002 0                

26.959           -0.00159193001966198 96.4710261047542 -34.3617613735591 -173.683851676659 -34.3617613735591 -173.683851676659 -0.00159193542006773 96.1612732694867 
! Gamma  !      0                432.332477561033 0                432.332464570637 
! Port Impedance  259.04335162475  0                259.035777193531 0                

26.968           -0.00165093158510866 96.0558102890175 -34.2035592426036 -174.099233296528 -34.2035592426036 -174.099233296528 -0.00165093676143255 95.7457257548303 
! Gamma  !      0                432.578965377831 0                432.578952394837 
! Port Impedance  258.982175940475 0                258.974603198365 0                

26.977           -0.00171240401176248 95.6387177613398 -34.0446271262351 -174.516490744591 -34.0446271262351 -174.516490744591 -0.00171240891389811 95.3283032686272 
! Gamma  !      0                432.825395026937 0                432.825382051335 
! Port Impedance  258.921104730132 0                258.913533674317 0                

26.986           -0.00177646422051875 95.2197147781718 -33.8849570869561 -174.935657716364 -33.8849570869561 -174.935657716365 -0.00177646879909056 94.9089721630065 
! Gamma  !      0                433.071766607646 0                433.071753639426 
! Port Impedance  258.860137731415 0                258.852568359088 0                

26.995           -0.00184323528286048 94.7987667774319 -33.7245410551564 -175.356768724055 -33.7245410551565 -175.356768724055 -0.001843239489378 94.4876979753134 
! Gamma  !      0                433.318080219008 0                433.318067258159 
! Port Impedance  258.7992746829   0                258.791706991261 0                

27.004           -0.0019128467750959 94.3758383527188 -33.5633708262025 -175.779859122264 -33.5633708262026 -175.779859122264 -0.00191285056210798 94.0644454024762 
! Gamma  !      0                433.564335959821 0                433.564323006333 
! Port Impedance  258.73851532405  0                258.730949310304 0                

27.013           -0.00198543515519561 93.9508932265247 -33.4014380574509 -176.204965134701 -33.4014380574511 -176.204965134701 -0.00198543847643504 93.6391782743789 
! Gamma  !      0                433.810533928637 0                433.810520982501 
! Port Impedance  258.677859395201 0                258.670295056562 0                

27.022           -0.00206114416378468 93.5238942224004 -33.238734265183 -176.632123881935 -33.2387342651832 -176.632123881935 -0.00206114697431565 93.2118595261951 
! Gamma  !      0                434.056674223762 0                434.056661284967 
! Port Impedance  258.617306637564 0                258.609743971252 0                

27.031           -0.00214012525102727 93.0948032360267 -33.0752508214585 -177.061373410231 -33.0752508214587 -177.061373410231 -0.00214012750737652 92.7824511696343 
! Gamma  !      0                434.302756943254 0                434.302744011791 
! Port Impedance  258.556856793222 0                258.549295796464 0                

27.04            -0.00222253803116642 92.6635812051377 -32.910978950887 -177.492752721544 -32.9109789508872 -177.492752721544 -0.00222253969146589 92.3509142630492 
! Gamma  !      0                434.54878218493  0                434.548769260787 
! Port Impedance  258.496509605122 0                258.488950275151 0                

27.049           -0.00230855076670447 92.2301880782442 -32.7459097273134 -177.926301804692 -32.7459097273136 -177.926301804692 -0.00230855179081563 91.9172088803515 
! Gamma  !      0                434.794750046357 0                434.794737129526 
! Port Impedance  258.436264817076 0                258.428707151132 0                

27.058           -0.00239834088433624 91.7945827820994 -32.5800340704164 -178.362061667799 -32.5800340704167 -178.362061667799 -0.00239834123396868 91.4812940786784 
! Gamma  !      0                435.040660624864 0                435.040647715334 
! Port Impedance  258.376122173753 0                258.368566169084 0                

27.067           -0.00249209552486803 91.3567231878485 -32.413342742217 -178.800074372033 -32.4133427422173 -178.800074372034 -0.00249209516370575 91.0431278647534 
! Gamma  !      0                435.286514017533 0                435.286501115295 
! Port Impedance  258.31608142068  0                258.308527074538 0                

27.076           -0.00259001212960209 90.9165660757957 -32.2458263434947 -179.240383066738 -32.245826343495 -179.240383066738 -0.00259001102341819 90.6026671598739 
! Gamma  !      0                435.532310321209 0                435.532297426252 
! Port Impedance  258.256142304233 0                258.248589613879 0                

27.085           -0.00269229906580374 90.4740670987268 -32.0774753101094 -179.683032025991 -32.0774753101096 -179.683032025991 -0.0026922971825684 90.1598677634645 
! Gamma  !      0                435.778049632492 0                435.778036744806 
! Port Impedance  258.196304571639 0                258.188753534339 0                

27.094           -0.00279917629408841 90.0291807437114 -31.908279909226 179.871933313319 -31.9082799092263 179.871933313319 -0.00279917360406818 89.7146843151227 
! Gamma  !      0                436.023732047743 0                436.023719167319 
! Port Impedance  258.136567970967 0                258.129018583995 0                

27.103           -0.00291087608081297 89.5818602923152 -31.7382302354398 179.424466311827 -31.73823023544  179.424466311827 -0.00291087255667968 89.2670702550838 
! Gamma  !      0                436.269357663084 0                436.269344789912 
! Port Impedance  258.07693225113  0                258.069384511766 0                

27.112           -0.00302764375875675 89.1320577791407 -31.5673162067998 178.974519086365 -31.5673162068001 178.974519086365 -0.00302763937567621 88.8169777830289 
! Gamma  !      0                436.5149265744   0                436.51491370847  
! Port Impedance  258.017397161876 0                258.009851067406 0                

27.121           -0.00314973853967482 88.6797239486152 -31.3955275607279 178.52204246689  -31.3955275607282 178.52204246689  -0.00314973327539939 88.3643578151518 
! Gamma  !      0                436.760438877335 0                436.760426018637 
! Port Impedance  257.957962453789 0                257.950418001506 0                

27.13            -0.00327743438260231 88.2248082099363 -31.2228538498306 178.066985951573 -31.2228538498309 178.066985951572 -0.00327742821754992 87.9091599393969 
! Gamma  !      0                437.005894667298 0                437.005881815822 
! Port Impedance  257.898627878281 0                257.891085065485 0                

27.139           -0.00341102092203395 87.767258590085  -31.0492844376022 177.609297659965 -31.0492844376025 177.609297659965 -0.00341101383938551 87.451332368781  
! Gamma  !      0                437.251294039462 0                437.251281195198 
! Port Impedance  257.839393187594 0                257.831852011591 0                

27.148           -0.00355080446055411 87.3070216848057 -30.8748084940153 177.148924284139 -30.8748084940157 177.148924284138 -0.00355079644631038 86.9908218926945 
! Gamma  !      0                437.496637088763 0                437.496624251702 
! Port Impedance  257.780258134791 0                257.772718592893 0                

27.157           -0.00369710903074538 86.8440426074508 -30.6994149909983 176.685811037696 -30.6994149909986 176.685811037696 -0.00369710007380411 86.5275738260856 
! Gamma  !      0                437.741923909905 0                437.741911080035 
! Port Impedance  257.721222473757 0                257.713684563284 0                

27.166           -0.00385027753168858 86.3782649355785 -30.5230926977944 176.219901602549 -30.5230926977947 176.219901602549 -0.0038502676239159 86.0615319564138 
! Gamma  !      0                437.987154597357 0                437.987141774661 
! Port Impedance  257.662285959193 0                257.654749677469 0                

27.175           -0.00401067294575274 85.90963065519   -30.345830176204 175.751138073338 -30.3458301762043 175.751138073337 -0.00401066208202655 85.5926384882605 
! Gamma  !      0                438.232329245352 0                438.232316429856 
! Port Impedance  257.603448346611 0                257.595913690969 0                

27.184           -0.00417867964188654 85.4380801024795 -30.1676157757033 175.279460899376 -30.1676157757036 175.279460899376 -0.00417866782016985 85.1208339854718 
! Gamma  !      0                438.477447947896 0                438.477435139556 
! Port Impedance  257.544709392337 0                257.537176360115 0                

27.193           -0.00435470477212969 84.96355190297   -29.9884376284421 174.804808823996 -29.9884376284424 174.804808823996 -0.00435469199351117 84.6460573107073 
! Gamma  !      0                438.72251079876  0                438.722497997573 
! Port Impedance  257.4860688535   0                257.478537442042 0                

27.202           -0.00453917976861341 84.4859829078926 -29.8082836441138 174.327118821137 -29.8082836441141 174.327118821137 -0.00453916603735177 84.1682455622535 
! Gamma  !      0                438.967517891485 0                438.967505097442 
! Port Impedance  257.427526488033 0                257.419996694691 0                

27.211           -0.00473256194895915 84.0053081276661 -29.6271415046998 173.846326029058 -29.6271415047001 173.846326029058 -0.00473254727252377 83.6873340079597 
! Gamma  !      0                439.212469319382 0                439.212456532474 
! Port Impedance  257.369082054669 0                257.361553876799 0                

27.22            -0.00493533623864325 83.5214606623185 -29.4449986590836 173.362363680995 -29.4449986590839 173.362363680994 -0.00493532062775281 83.20325601614   
! Gamma  !      0                439.457365175534 0                439.457352395751 
! Port Impedance  257.310735312937 0                257.303208747903 0                

27.229           -0.00514801701967017 83.0343716286867 -29.2618423175349 172.875163032611 -29.2618423175352 172.87516303261  -0.00514800048830533 82.7159429832786 
! Gamma  !      0                439.702205552793 0                439.702192780126 
! Port Impedance  257.252486023159 0                257.244961068331 0                

27.238           -0.00537115011560751 82.543970084217  -29.0776594460609 172.384653286065 -29.0776594460612 172.384653286064 -0.00537113268105636 82.2253242583631 
! Gamma  !      0                439.946990543785 0                439.946977778225 
! Port Impedance  257.194333946446 0                257.186810599201 0                

27.247           -0.00560531492407556 82.0501829471848 -28.892436760626 171.890761510509 -28.8924367606263 171.890761510508 -0.00560529660692991 81.7313270636637 
! Gamma  !      0                440.19172024091  0                440.191707482446 
! Port Impedance  257.136278844698 0                257.128757102417 0                

27.256           -0.00585112670856412 81.552934913128  -28.7061607212355 171.393412558815 -28.7061607212357 171.393412558815 -0.00585110753273999 81.2338764117586 
! Gamma  !      0                440.436394736339 0                440.436381984963 
! Port Impedance  257.078320480594 0                257.070800340667 0                

27.265           -0.00610923906264823 81.0521483672914 -28.5188175258871 170.892528980332 -28.5188175258874 170.892528980331 -0.00610921905538798 80.7328950185999 
! Gamma  !      0                440.68101412202  0                440.681001377723 
! Port Impedance  257.020458617597 0                257.012940077417 0                

27.274           -0.00638034656076278 80.5477432928531 -28.3303931043872 170.388030929435 -28.3303931043875 170.388030929435 -0.00638032575264021 80.228303212397  
! Gamma  !      0                440.925578489676 0                440.925565752447 
! Port Impedance  256.962693019943 0                256.955176076913 0                

27.283           -0.00666518761098502 80.0396371746986 -28.1408731120339 169.87983606965  -28.1408731120341 169.87983606965  -0.00666516603589602 79.7200188380823 