! Touchstone file from project Ka_PF
! Exported from HFSS 15.0.0
! Variables:
!  AA = 0.34in
!  BB = 0.145in
!  M01 = 0.1677in
!  M11 = 0.2119in
!  M12 = 0.1109in
!  M22 = 0.2365in
!  PL = 0.3in
!  RR = 0.035in
!  TT = 0.04in
!Data is not renormalized
# GHZ S DB
! Modal data exported
! Port[1] = 1:1
! Port[2] = 2:1
26.5             -0.00014493469962541 115.823865633107 -44.766191465763 -154.107440725162 -44.7661914657601 -154.107440725139 -0.00014493470628806 115.961252936308 
! Gamma  !      -0               419.682046712179 -0               419.682061316531 
! Port Impedance  262.302945550707 0                262.30327305701  0                

26.509           -0.000148950449135172 115.475498740705 -44.6386064760889 -154.455606538318 -44.6386064760855 -154.455606538295 -0.00014895042139871 115.613284115362 
! Gamma  !      0                419.931638874108 0                419.931653469779 
! Port Impedance  262.236073239822 0                262.236400664046 0                

26.518           -0.000153148088484075 115.126330710674 -44.510590118474 -154.804572390877 -44.5105901184701 -154.804572390855 -0.000153148032308116 115.264516926485 
! Gamma  !      0                420.18116745285  0                420.181182039853 
! Port Impedance  262.169320047001 0                262.16964738929  0                

26.527           -0.000157530687351312 114.776350689737 -44.3821389165321 -155.154349098581 -44.3821389165278 -155.154349098558 -0.000157530608137124 114.914940548786 
! Gamma  !      0                420.430632561615 0                420.430647139964 
! Port Impedance  262.102685659288 0                262.103012919788 0                

26.536           -0.000162101604375005 114.425547640681 -44.2532493514773 -155.504947661743 -44.2532493514726 -155.504947661721 -0.000162101507014687 114.564543977949 
! Gamma  !      0                420.680034313319 0                420.680048883025 
! Port Impedance  262.036169764835 0                262.036496943689 0                

26.545           -0.000166864495984169 114.073910338352 -44.1239178614213 -155.856379269251 -44.1239178614163 -155.856379269228 -0.000166864384866437 114.213316022239 
! Gamma  !      0                420.929372820579 0                420.929387381654 
! Port Impedance  261.969772052895 0                261.970099150247 0                

26.554           -0.000171823325666702 113.72142736554  -43.9941408406553 -156.208655302656 -43.99414084065  -156.208655302633 -0.000171823204711608 113.861245298397 
! Gamma  !      0                421.178648195717 0                421.178662748174 
! Port Impedance  261.903492213817 0                261.903819229811 0                

26.563           -0.000176982373783349 113.368087108757 -43.8639146389187 -156.561787340384 -43.8639146389132 -156.561787340362 -0.000176982246473136 113.508320227431 
! Gamma  !      0                421.427860550761 0                421.427875094612 
! Port Impedance  261.837329939045 0                261.837656873824 0                

26.572           -0.00018234624789099 113.0138777539   -43.7332355606519 -156.915787162055 -43.7332355606462 -156.915787162033 -0.000182346117286487 113.154529030284 
! Gamma  !      0                421.677009997447 0                421.677024532705 
! Port Impedance  261.771284921107 0                261.771611774815 0                

26.581           -0.000187919893644723 112.658787281797 -43.6020998642349 -157.270666752913 -43.602099864229 -157.27066675289 -0.000187919762408488 112.799859723396 
! Gamma  !      0                421.926096647218 0                421.926111173894 
! Port Impedance  261.705356853616 0                261.705683626395 0                

26.59            -0.000193708606250765 112.302803463631 -43.4705037612093 -157.626438308385 -43.4705037612034 -157.626438308362 -0.000193708476676979 112.444300114135 
! Gamma  !      0                422.175120611226 0                422.175135129333 
! Port Impedance  261.639545431263 0                261.639872123254 0                

26.599           -0.000199718042600386 111.945913856243 -43.3384434154856 -157.983114238756 -43.3384434154795 -157.983114238733 -0.000199717916634143 112.087837796114 
! Gamma  !      0                422.424082000332 0                422.424096509883 
! Port Impedance  261.573850349808 0                261.574176961153 0                

26.608           -0.000205954234007751 111.588105797303 -43.2059149425329 -158.340707173975 -43.2059149425268 -158.340707173952 -0.00020595411327109 111.730460144371 
! Gamma  !      0                422.67298092511  0                422.672995426117 
! Port Impedance  261.508271306083 0                261.508597836925 0                

26.617           -0.000212423599664498 111.229366400346 -43.0729144085529 -158.699229968595 -43.0729144085468 -158.699229968572 -0.00021242348547569 111.372154310419 
! Gamma  !      0                422.921817495845 0                422.92183198832  
! Port Impedance  261.442807997982 0                261.443134448461 0                

26.626           -0.000219132960825555 110.869682549676 -42.9394378296365 -159.058695706845 -42.9394378296303 -159.058695706821 -0.000219132854219357 111.012907217161 
! Gamma  !      0                423.170591822534 0                423.170606306489 
! Port Impedance  261.377460124457 0                261.377786494713 0                

26.635           -0.000226089555750316 110.509040895124 -42.8054811709023 -159.419117707841 -42.8054811708961 -159.419117707817 -0.000226089457503041 110.65270555366  
! Gamma  !      0                423.41930401489  0                423.419318490337 
! Port Impedance  261.312227385515 0                261.312553675689 0                

26.644           -0.00023330105545225 110.147427846663 -42.6710403456176 -159.780509530955 -42.6710403456114 -159.780509530932 -0.000233300966100088 110.291535769764 
! Gamma  !      0                423.667954182339 0                423.667968649291 
! Port Impedance  261.24710948221  0                261.247435692442 0                

26.653           -0.000240775580329276 109.784829568865 -42.5361112143015 -160.14288498132 -42.5361112142955 -160.142884981297 -0.000240775500188549 109.929384070584 
! Gamma  !      0                423.916542434025 0                423.916556892494 
! Port Impedance  261.182106116644 0                261.182432247074 0                

26.662           -0.00024852171766339 109.421231975211 -42.4006895838079 -160.5062581155  -42.400689583802 -160.506258115476 -0.000248521646851762 109.566236410807 
! Gamma  !      0                424.165068878808 0                424.165083328805 
! Port Impedance  261.117216991956 0                261.117543042722 0                

26.671           -0.000256548540107193 109.056620722233 -42.2647712063899 -160.870643247313 -42.264771206384 -160.87064324729 -0.000256548478556211 109.202078488857 
! Gamma  !      0                424.413533625265 0                424.413548066802 
! Port Impedance  261.052441812321 0                261.052767783563 0                

26.68            -0.000264865625137133 108.690981203488 -42.1283517787439 -161.236054953834 -42.1283517787381 -161.23605495381 -0.000264865572620186 108.836895740882 
! Gamma  !      0                424.661936781693 0                424.661951214783 
! Port Impedance  260.987780282946 0                260.988106174802 0                

26.689           -0.000273483075610412 108.324298543364 -41.991426941034 -161.602508081553 -41.9914269410283 -161.60250808153 -0.000273483031757204 108.470673334573 
! Gamma  !      0                424.91027845611  0                424.910292880764 
! Port Impedance  260.923232110063 0                260.923557922671 0                

26.698           -0.000282411541414049 107.956557590707 -41.8539922758946 -161.970017752726 -41.8539922758891 -161.970017752703 -0.000282411505723129 108.103396162806 
! Gamma  !      0                425.158558756252 0                425.158573172483 
! Port Impedance  260.858797000926 0                260.859122734425 0                

26.707           -0.000291662242311242 107.587742912254 -41.7160433074122 -162.338599371902 -41.7160433074067 -162.33859937188 -0.000291662214171222 107.73504883709  
! Gamma  !      0                425.40677778958  0                425.406792197399 
! Port Impedance  260.794474663806 0                260.794800318333 0                

26.716           -0.000301246992042945 107.217838785892 -41.5775755000846 -162.708268632643 -41.5775755000794 -162.708268632621 -0.00030124697075275 107.36561568084  
! Gamma  !      0                425.654935663277 0                425.654950062696 
! Port Impedance  260.730264807988 0                260.730590383679 0                

26.725           -0.000311178223748371 106.846829193702 -41.4385842577586 -163.079041524443 -41.4385842577535 -163.079041524421 -0.000311178208523023 106.995080722437 
! Gamma  !      0                425.903032484247 0                425.903046875279 
! Port Impedance  260.666167143763 0                260.666492640756 0                

26.734           -0.000321469016785466 106.47469781481  -41.2990649225429 -163.450934339847 -41.2990649225379 -163.450934339825 -0.000321469006780198 106.623427688094 
! Gamma  !      0                426.151068359124 0                426.151082741779 
! Port Impedance  260.602181382429 0                260.602506800859 0                

26.743           -0.000332133125041131 106.101428018021 -41.1590127736989 -163.823963681788 -41.1590127736941 -163.823963681767 -0.000332133119359096 106.250639994507 
! Gamma  !      0                426.399043394263 0                426.399057768554 
! Port Impedance  260.538307236279 0                260.538632576284 0                

26.752           -0.000343185006794885 105.727002854236 -41.0184230265058 -164.198146471137 -41.0184230265012 -164.198146471117 -0.000343185004508375 105.876700741287 
! Gamma  !      0                426.646957695747 0                426.646972061686 
! Port Impedance  260.474544418606 0                260.47486968032  0                

26.761           -0.000354639856243114 105.351405048641 -40.8772908311017 -164.573499954486 -40.8772908310971 -164.573499954465 -0.000354639856408021 105.501592703169 
! Gamma  !      0                426.894811369389 0                426.894825726987 
! Port Impedance  260.41089264369  0                260.411217827249 0                

26.77            -0.000366513636788119 104.974616992663 -40.735611271298 -164.950041712155 -40.7356112712936 -164.950041712136 -0.000366513638447796 105.125298321979 
! Gamma  !      0                427.142604520728 0                427.142618869997 
! Port Impedance  260.347351626799 0                260.347676732338 0                

26.779           -0.000378823116173092 104.596620735679 -40.5933793633684 -165.32778966646 -40.5933793633642 -165.32778966644 -0.000378823118376676 104.747799698369 
! Gamma  !      0                427.390337255032 0                427.390351595984 
! Port Impedance  260.283921084184 0                260.284246111838 0                

26.788           -0.000391585903577859 104.21739797648  -40.4505900548102 -165.706762090212 -40.4505900548062 -165.706762090193 -0.000391585905398592 104.36907858329  
! Gamma  !      0                427.638009677303 0                427.638024009949 
! Port Impedance  260.220600733071 0                260.220925682974 0                

26.797           -0.000404820488822101 103.836930054464 -40.3072382230779 -166.086977615497 -40.307238223074 -166.08697761548 -0.000404820489355399 103.989116369212 
! Gamma  !      0                427.885621892269 0                427.885636216622 
! Port Impedance  260.157390291662 0                260.157715163948 0                

26.806           -0.000418546283729206 103.455197940567 -40.1633186742885 -166.468455242714 -40.1633186742848 -166.468455242697 -0.000418546282116772 103.607894081066 
! Gamma  !      0                428.133174004395 0                428.133188320466 
! Port Impedance  260.094289479127 0                260.09461427393  0                

26.815           -0.000432783665875606 103.072182227913 -40.0188261418973 -166.851214349896 -40.0188261418937 -166.851214349879 -0.00043278366130543 103.225392366918 
! Gamma  !      0                428.380666117878 0                428.380680425679 
! Port Impedance  260.031298015602 0                260.031622733055 0                

26.824           -0.000447554024785521 102.687863122165 -39.8737552853438 -167.235274702327 -39.8737552853404 -167.23527470231 -0.000447554016511165 102.841591488341 
! Gamma  !      0                428.628098336647 0                428.628112636189 
! Port Impedance  259.968415622183 0                259.968740262418 0                

26.833           -0.000462879810765125 102.302220431586 -39.7281006886667 -167.620656462453 -39.7281006886635 -167.620656462437 -0.000462879798109581 102.456471310489 
! Gamma  !      0                428.875470764367 0                428.875485055664 
! Port Impedance  259.905642020923 0                259.905966584074 0                

26.842           -0.000478784586510365 101.915233556778 -39.581856859087 -168.007380200115 -39.581856859084 -168.0073802001  -0.000478784568877629 102.070011291868 
! Gamma  !      0                429.122783504439 0                429.122797787505 
! Port Impedance  259.842976934828 0                259.843301421027 0                

26.851           -0.000495293081693074 101.526881480106 -39.4350182255591 -168.395466903098 -39.4350182255562 -168.395466903084 -0.000495293058570076 101.682190473766 
! Gamma  !      0                429.370036659972 0                429.370050934849 
! Port Impedance  259.780420087851 0                259.78074449723  0                

26.86            -0.000512431250641337 101.137142754773 -39.2875791372874 -168.784937988023 -39.2875791372846 -168.78493798801 -0.000512431221616261 101.292987469367 
! Gamma  !      0                429.617230333987 0                429.617244600574 
! Port Impedance  259.717971204891 0                259.718295537582 0                

26.869           -0.000530226333388221 100.74599549356  -39.1395338622103 -169.175815311584 -39.1395338622076 -169.175815311571 -0.000530226298148579 100.902380452498 
! Gamma  !      0                429.864364628892 0                429.864378887294 
! Port Impedance  259.655630011787 0                259.65595426792  0                

26.878           -0.00054870692022802 100.353417357195 -38.9908765854471 -169.568121182151 -38.9908765854446 -169.568121182138 -0.000548706878569335 100.51034714603  
! Gamma  !      0                430.111439647147 0                430.111453897363 
! Port Impedance  259.593396235312 0                259.59372041502  0                

26.887           -0.000567903020019481 99.9593855423443 -38.8416014077104 -169.961878371747 -38.841601407708 -169.961878371736 -0.000567902971859747 100.116864809888 
! Gamma  !      0                430.358455490838 0                430.358469732876 
! Port Impedance  259.531269603175 0                259.531593706587 0                

26.896           -0.000587846132498634 99.5638767692232 -38.6917023436801 -170.357110128421 -38.6917023436778 -170.35711012841 -0.000587846077873501 99.7219102286879 
! Gamma  !      0                430.605412261798 0                430.605426495669 
! Port Impedance  259.469249844008 0                259.469573871255 0                

26.905           -0.000608569324790623 99.1668672687888 -38.5411733203399 -170.753840189018 -38.5411733203377 -170.753840189008 -0.00060856926385918 99.3254596989515 
! Gamma  !      0                430.852310061605 0                430.85232428732  
! Port Impedance  259.407336687372 0                259.407660638584 0                

26.914           -0.000630107312439172 98.7683327695198 -38.3900081752744 -171.152092792382 -38.3900081752723 -171.152092792372 -0.000630107245497454 98.9274890159128 
! Gamma  !      0                431.09914899158  0                431.099163209151 
! Port Impedance  259.345529863745 0                259.345853739052 0                

26.923           -0.000652496545216453 98.3682484837556 -38.2382006549264 -171.551892692988 -38.2382006549245 -171.551892692979 -0.000652496472687793 98.5279734598813 
! Gamma  !      0                431.34592915279  0                431.345943362227 
! Port Impedance  259.283829104523 0                259.284152904053 0                

26.932           -0.00067577529801471 97.9665890935793 -38.0857444128126 -171.953265175034 -38.0857444128108 -171.953265175026 -0.000675775220466141 98.1268877821522 
! Gamma  !      0                431.592650646043 0                431.592664847357 
! Port Impedance  259.222234142011 0                259.222557865894 0                

26.941           -0.000699983767153888 97.5633287362292 -37.9326330076964 -172.356236067009 -37.9326330076946 -172.356236067001 -0.000699983685286496 97.7242061904435 
! Gamma  !      0                431.839313571896 0                431.839327765099 
! Port Impedance  259.160744709427 0                259.161068357792 0                

26.95            -0.000725164172420219 97.1584409890178 -37.778859901718 -172.760831756745 -37.7788599017164 -172.760831756738 -0.000725164087084579 97.3199023338425 
! Gamma  !      0                432.085918030651 0                432.085932215753 
! Port Impedance  259.09936054089  0                259.099684113864 0                

26.959           -0.000751360865275257 96.7518988537383 -37.6244184584799 -173.167079206993 -37.6244184584783 -173.167079206986 -0.000751360777461788 96.9139492872404 
! Gamma  !      0                432.332464122357 0                432.33247829937  
! Port Impedance  259.038081371419 0                259.038404869132 0                

26.968           -0.000778620443542741 96.3436747405396 -37.4693019410853 -173.575005971517 -37.4693019410838 -173.575005971511 -0.000778620354384603 96.5063195352356 
! Gamma  !      0                432.578951946813 0                432.578966115748 
! Port Impedance  258.976906936933 0                258.977230359511 0                

26.977           -0.000806991873068855 95.9337404512479 -37.3135035101306 -173.984640211758 -37.3135035101292 -173.984640211753 -0.000806991783843881 96.0969849554849 
! Gamma  !      0                432.825381603565 0                432.825395764434 
! Port Impedance  258.91583697424  0                258.916160321812 0                

26.986           -0.000836526616768562 95.5220671621103 -37.1570162216491 -174.396010714063 -37.1570162216477 -174.396010714058 -0.000836526528903117 95.6859168014762 
! Gamma  !      0                433.071753191911 0                433.071767344724 
! Port Impedance  258.85487122104  0                258.855194493732 0                

26.995           -0.00086727877156822 95.1086254059401 -36.9998330250049 -174.809146907517 -36.9998330250036 -174.809146907513 -0.00086727868663142 95.2730856847048 
! Gamma  !      0                433.318066810899 0                433.318080955667 
! Port Impedance  258.794009415917 0                258.794332613856 0                

27.004           -0.000899305213749966 94.6933850536355 -36.8419467607361 -175.224078882408 -36.8419467607349 -175.224078882404 -0.000899305133444997 94.8584615562235 
! Gamma  !      0                433.564322559327 0                433.564336696061 
! Port Impedance  258.733251298335 0                258.733574421647 0                

27.013           -0.000932665753245904 94.2763152950487 -36.6833501583452 -175.640837409328 -36.683350158344 -175.640837409325 -0.00093266567942546 94.4420136875435 
! Gamma  !      0                433.810520535748 0                433.81053466446  
! Port Impedance  258.672596608638 0                258.67291965745  0                

27.022           -0.000967423297525761 93.8573846191764 -36.5240358340362 -176.059453958968 -36.5240358340351 -176.059453958965 -0.000967423232167939 94.0237106508574 
! Gamma  !      0                434.056660838468 0                434.056674959167 
! Port Impedance  258.612045088042 0                258.61236806248  0                

27.031           -0.00100364402564177 93.4365607936438 -36.3639962883968 -176.479960722609 -36.3639962883957 -176.479960722607 -0.00100364397086646 93.6035202985566 
! Gamma  !      0                434.302743565545 0                434.302757678243 
! Port Impedance  258.551596478634 0                258.551919378823 0                

27.04            -0.00104139757321171 93.0138108434522 -36.2032239040231 -176.902390633357 -36.2032239040221 -176.902390633354 -0.00104139753126422 93.1814097420139 
! Gamma  !      0                434.548768814794 0                434.548782919502 
! Port Impedance  258.491250523369 0                258.491573349434 0                

27.049           -0.00108075722898327 92.5891010289588 -36.0417109430875 -177.326777388135 -36.0417109430865 -177.326777388133 -0.00108075720222178 92.7573453295971 
! Gamma  !      0                434.794736683785 0                434.794750780514 
! Port Impedance  258.431006966061 0                258.431329718128 0                

27.058           -0.00112180014383254 92.162396823055  -35.8794495448455 -177.753155470493 -35.8794495448446 -177.753155470492 -0.0011218001347503 92.331292623884  
! Gamma  !      0                435.040647269844 0                435.040661358606 
! Port Impedance  258.370865551387 0                258.371188229579 0                

27.067           -0.0011646075530523 91.7336628875105 -35.7164317230834 -178.181560174238 -35.7164317230825 -178.181560174237 -0.00116460756423807 91.9032163780425 
! Gamma  !      0                435.286500670057 0                435.286514750862 
! Port Impedance  258.310826024877 0                258.311148629319 0                

27.076           -0.00120926501276897 91.3028630484446 -35.5526493635012 -178.612027627941 -35.5526493635004 -178.612027627941 -0.00120926504692539 91.4730805113398 
! Gamma  !      0                435.532296981265 0                435.532311054123 
! Port Impedance  258.250888132914 0                258.25121066373  0                

27.085           -0.00125586265156351 90.8699602708892 -35.388094221033 -179.044594820356 -35.3880942210322 -179.044594820356 -0.00125586271148391 91.0408480837428 
! Gamma  !      0                435.778036300071 0                435.778050364993 
! Port Impedance  258.191051622729 0                258.191374080042 0                

27.094           -0.00130449543827827 90.4349166324    -35.2227579171005 -179.479299626788 -35.2227579170996 -179.479299626788 -0.00130449552684673 90.6064812695694 
! Gamma  !      0                436.023718722834 0                436.023732779832 
! Port Impedance  258.131316242396 0                258.131638626331 0                

27.103           -0.00135526346717767 89.9976932956782 -35.0566319367991 -179.916180836448 -35.0566319367983 -179.916180836448 -0.00135526358735259 90.1699413301492 
! Gamma  !      0                436.269344345678 0                436.269358394761 
! Port Impedance  258.071681740834 0                258.072004051513 0                

27.112           -0.00140827226167581 89.5582504801543 -34.8897076260156 179.64472181915  -34.8897076260148 179.644721819149 -0.00140827241648993 89.7311885854483 
! Gamma  !      0                436.514913264485 0                436.514927305665 
! Port Impedance  258.012147867796 0                258.012470105342 0                

27.121           -0.0014636330979348 89.1165474324906 -34.7219761884737 179.20336763671  -34.7219761884729 179.203367636709 -0.00146363329047111 89.2901823846141 
! Gamma  !      0                436.760425574902 0                436.760439608189 
! Port Impedance  257.95271437387  0                257.953036538406 0                

27.13            -0.00152146334973426 88.6725423959511 -34.5534286827078 178.75971491055  -34.5534286827071 178.759714910549 -0.00152146358312792 88.8468810753866 
! Gamma  !      0                437.005881372337 0                437.005895397742 
! Port Impedance  257.893381010476 0                257.893703102123 0                

27.139           -0.00158188685617615 88.2261925785902 -34.3840560189626 178.31372090081  -34.3840560189618 178.313720900809 -0.00158188713359618 88.4012419723316 
! Gamma  !      0                437.251280751962 0                437.251294769496 
! Port Impedance  257.834147529857 0                257.834469548738 0                

27.148           -0.00164503431381757 87.777454120203  -34.2138489560153 177.865341800421 -34.2138489560146 177.86534180042  -0.00164503463844949 87.9532213238343 
! Gamma  !      0                437.496623808715 0                437.496637818388 
! Port Impedance  257.775013685085 0                257.77533563132  0                

27.157           -0.00171104369499403 87.3262820579824 -34.042798097922 177.414532700787 -34.0427980979213 177.414532700786 -0.00171104407003603 87.5027742778027 
! Gamma  !      0                437.741910637298 0                437.741924639122 
! Port Impedance  257.715979230047 0                257.716301103759 0                

27.166           -0.00178006069428904 86.8726302908219 -33.8708938906821 176.96124755611  -33.8708938906814 176.961247556108 -0.00178006112292883 87.0498548460155 
! Gamma  !      0                437.987141332181 0                437.987155326165 
! Port Impedance  257.65704391945  0                257.657365720759 0                

27.175           -0.00185223920512643 86.4164515422013 -33.6981266188232 176.505439146294 -33.6981266188225 176.505439146293 -0.00185223969053351 86.5944158670558 
! Gamma  !      0                438.232315987598 0                438.232329973753 
! Port Impedance  257.598207508812 0                257.598529237839 0                

27.184           -0.00192774182878185 85.9576973215882 -33.5244864019019 176.047059038376 -33.5244864019012 176.047059038374 -0.00192774237408154 86.13640896776   
! Gamma  !      0                438.477434697553 0                438.47744867589  
! Port Impedance  257.539469754463 0                257.539791411328 0                

27.193           -0.00200674041811339 85.4963178842868 -33.3499631909195 175.586057546389 -33.3499631909189 175.586057546387 -0.00200674102638195 85.6757845231157 
! Gamma  !      0                438.722497555819 0                438.722511526347 
! Port Impedance  257.480830413537 0                257.481151998361 0                

27.202           -0.00208941665868162 85.0322621896567 -33.1745467646518 175.122383689612 -33.1745467646511 175.12238368961  -0.00208941733291737 85.2124916145305 
! Gamma  !      0                438.967504655935 0                438.967518618666 
! Port Impedance  257.422289243972 0                257.422610756874 0                

27.211           -0.00217596268997659 84.5654778576271 -32.9982267258893 174.6559851491   -32.9982267258886 174.655985149098 -0.00217596343309315 84.7464779863965 
! Gamma  !      0                439.212456091214 0                439.212470046158 
! Port Impedance  257.363846004506 0                257.364167445606 0                

27.22            -0.00226658176982189 84.0959111234212 -32.8209924975884 174.186808222441 -32.8209924975878 174.186808222439 -0.00226658258461539 84.277690000867  
! Gamma  !      0                439.457351954737 0                439.457365901905 
! Port Impedance  257.305500454674 0                257.305821824091 0                

27.229           -0.00236148898515051 83.6235067904065 -32.6428333189303 173.714797776622 -32.6428333189297 173.71479777662  -0.00236148987429385 83.8060725907589 
! Gamma  !      0                439.702192339358 0                439.70220627876  
! Port Impedance  257.247252354801 0                257.247573652654 0                

27.238           -0.00246091201276029 83.1482081809747 -32.4637382412858 173.239897198941 -32.4637382412852 173.239897198939 -0.00246091297876547 83.3315692104863 
! Gamma  !      0                439.946977337702 0                439.946991269348 
! Port Impedance  257.189101466005 0                257.189422692412 0                

27.247           -0.00256509193378462 82.6699570853619 -32.2836961240869 172.762048345846 -32.2836961240862 172.762048345844 -0.00256509297899702 82.854121784935  
! Gamma  !      0                440.191707042169 0                440.19172096607  
! Port Impedance  257.131047550189 0                257.131368705269 0                

27.256           -0.00267428410606168 82.1886937082969 -32.1026956306001 172.281191489613 -32.1026956305995 172.281191489612 -0.00267428523262918 82.3736706561661 
! Gamma  !      0                440.43638154493  0                440.436395461096 
! Port Impedance  257.073090370038 0                257.073411453909 0                

27.265           -0.00278875909885972 81.7043566133778 -31.9207252236035 171.797265262749 -31.9207252236029 171.797265262748 -0.00278876030871533 81.8901545278484 
! Gamma  !      0                440.681000937934 0                440.681014846375 
! Port Impedance  257.015229689018 0                257.015550701798 0                

27.274           -0.00290880369481117 81.2168826650569 -31.7377731609639 171.310206599999 -31.7377731609633 171.310206599997 -0.0029088049896364 81.4035104073007 
! Gamma  !      0                440.925565312902 0                440.925579213629 
! Port Impedance  256.957465271373 0                256.957786213179 0                
