! Touchstone file from project Ka_PF
! Exported from HFSS 15.0.0
! Variables:
!  AA = 0.34in
!  BB = 0.145in
!  M01 = 0.166in
!  M11 = 0.2125in
!  M12 = 0.1117in
!  M22 = 0.2361in
!  PL = 0.3in
!  RR = 0.035in
!  TT = 0.04in
!Data is not renormalized
# GHZ S DB
! Modal data exported
! Port[1] = 1:1
! Port[2] = 2:1
26.5             -0.00013912841559133 118.141928300899 -44.9437542915957 28.2678503718515 -44.943754291597 28.2678503718377 -0.000139128414974151 118.393772443247 
! Gamma  !      -0               419.682080965706 -0               419.682064779333 
! Port Impedance  262.307445659107 0                262.307992973056 0                

26.509           -0.000142983300497264 117.801021759263 -44.8158256851136 27.9272876938412 -44.815825685115 27.9272876938284 -0.000142985976699509 118.053553621986 
! Gamma  !      0                419.931673107277 0                419.931656930524 
! Port Impedance  262.240572194938 0                262.241119377458 0                

26.518           -0.000147014978824063 117.459365903111 -44.6874599799421 27.5859786874775 -44.6874599799434 27.585978687465  -0.000147020000611556 117.712591446565 
! Gamma  !      0                420.181201665691 0                420.181185498543 
! Port Impedance  262.173817850893 0                262.17436490221  0                

26.527           -0.000151226382358872 117.116950438709 -44.5586536054943 27.2439131023953 -44.5586536054956 27.2439131023831 -0.000151233438408901 117.370875712152 
! Gamma  !      0                420.430666754159 0                420.430650596602 
! Port Impedance  262.107182314009 0                262.107729234352 0                

26.536           -0.000155620725402637 116.773764895754 -44.4294029465035 26.9010805125864 -44.4294029465047 26.9010805125752 -0.000155629523668453 117.028396039056 
! Gamma  !      0                420.680068485607 0                420.680052337614 
! Port Impedance  262.040665272433 0                262.041212062028 0                

26.545           -0.000160201513410064 116.429798623459 -44.2997043422649 26.55747031251   -44.2997043422661 26.5574703124985 -0.000160211780503707 116.685141868859 
! Gamma  !      0                420.929406972575 0                420.929390834197 
! Port Impedance  261.974266415412 0                261.974813074485 0                

26.554           -0.000164972552111887 116.085040786547 -44.1695540858626 26.2130717130988 -44.1695540858637 26.2130717130881 -0.000164984032698579 116.341102460452 
! Gamma  !      0                421.178682327518 0                421.178666198674 
! Port Impedance  261.907985433292 0                261.908531962068 0                

26.563           -0.000169937957132942 115.739480361123 -44.038948423379 25.8678737376572 -44.03894842338  25.8678737376472 -0.000169950413332241 115.996266885948 
! Gamma  !      0                421.427894662382 0                421.427878543072 
! Port Impedance  261.841822017508 0                261.842368416213 0                

26.572           -0.000175102164150438 115.393106130441 -43.9078835530879 25.5218652176476 -43.9078835530889 25.5218652176377 -0.000175115374938347 115.650624026496 
! Gamma  !      0                421.677044088914 0                421.677027979127 
! Port Impedance  261.775775860586 0                261.776322129444 0                

26.581           -0.000180469939580841 115.04590668055  -43.7763556246304 25.1750347883564 -43.7763556246314 25.1750347883471 -0.000180483700213145 115.304162567975 
! Gamma  !      0                421.92613071856  0                421.926114618282 
! Port Impedance  261.709846656133 0                261.710392795368 0                

26.59            -0.000186046391874484 114.697870395818 -43.6443607381725 24.8273708844467 -43.6443607381733 24.8273708844375 -0.000186060513309114 114.956870996568 
! Gamma  !      0                422.17515466247  0                422.17513857169  
! Port Impedance  261.644034098832 0                261.644580108667 0                

26.599           -0.000191836983415001 114.34898545434  -43.5118949435448 24.4788617353821 -43.5118949435457 24.4788617353737 -0.000191851291752729 114.608737594215 
! Gamma  !      0                422.424116031509 0                422.424099950211 
! Port Impedance  261.578337884441 0                261.5788837651   0                

26.608           -0.00019784754307956 113.999239823208 -43.3789542393641 24.1294953607259 -43.378954239365 24.129495360718  -0.000197861879001797 114.259750433937 
! Gamma  !      0                422.673014936247 0                422.672998864419 
! Port Impedance  261.512757709786 0                261.51330346149  0                

26.617           -0.000204084279464706 113.648621253654 -43.2455345721344 23.779259565307  -43.2455345721352 23.7792595652991 -0.000204098497695411 113.909897375031 
! Gamma  !      0                422.921851486971 0                422.921835424599 
! Port Impedance  261.447293272754 0                261.447838895725 0                

26.626           -0.00021055379485307 113.297117276055 -43.1116318353293 23.4281419342474 -43.1116318353302 23.4281419342401 -0.000210567763615838 113.559166058129 
! Gamma  !      0                423.170625793677 0                423.170609740748 
! Port Impedance  261.381944272294 0                261.382489766753 0                

26.635           -0.000217263099942183 112.94471519479  -42.9772418684547 23.0761298278546 -42.9772418684554 23.0761298278474 -0.000217276700432762 113.207543900114 
! Gamma  !      0                423.419337966079 0                423.419321922579 
! Port Impedance  261.316710408406 0                261.317255774574 0                

26.644           -0.000224219629362399 112.591402082963 -42.8423604560883 22.7232103763602 -42.8423604560891 22.7232103763533 -0.000224232755226032 112.855018088894 
! Gamma  !      0                423.667988113603 0                423.667972079519 
! Port Impedance  261.251591382141 0                261.252136620238 0                

26.653           -0.000231431258060162 112.237164776961 -42.7069833269016 22.3693704745157 -42.7069833269023 22.3693704745091 -0.000231443814885321 112.501575578027 
! Gamma  !      0                423.916576345391 0                423.91656032071  
! Port Impedance  261.186586895594 0                261.187132005839 0                

26.662           -0.000238906318576518 111.881989870867 -42.5711061526562 22.0145967760262 -42.5711061526569 22.0145967760201 -0.00023891822338864 112.14720308119  
! Gamma  !      0                424.165102770305 0                424.165086755012 
! Port Impedance  261.121696651899 0                261.122241634511 0                

26.671           -0.000246653619263347 111.525863710699 -42.4347245471806 21.6588756878275 -42.4347245471813 21.6588756878217 -0.000246664800028214 111.791887066483 
! Gamma  !      0                424.413567496921 0                424.413551491004 
! Port Impedance  261.056920355226 0                261.057465210424 0                

26.68            -0.000254682463506776 111.168772388495 -42.2978340653224 21.3021933641938 -42.2978340653231 21.3021933641883 -0.000254692858657034 111.435613750578 
! Gamma  !      0                424.661970633536 0                424.661954636982 
! Port Impedance  260.992257710778 0                260.992802438778 0                

26.689           -0.000263002670015664 110.810701736209 -42.1604302018772 20.9445357006735 -42.1604302018779 20.9445357006686 -0.000263012227957102 111.078369092686 
! Gamma  !      0                424.910312288168 0                424.910296300963 
! Port Impedance  260.927708424781 0                260.928253025802 0                

26.698           -0.000271624594200286 110.451637319446 -42.0225083904933 20.5858883278482 -42.0225083904939 20.5858883278434 -0.000271633272861502 110.720138788353 
! Gamma  !      0                425.158592568553 0                425.158576590684 
! Port Impedance  260.863272204484 0                260.863816678741 0                

26.707           -0.000280559150779151 110.09156443099  -41.8840640025518 20.226236604905  -41.8840640025524 20.2262366049003 -0.000280566917140006 110.360908263069 
! Gamma  !      0                425.406811582153 0                425.406795613606 
! Port Impedance  260.798948758153 0                260.799493105863 0                

26.716           -0.000289817837580248 109.730468084162 -41.7450923460204 19.8655656130171 -41.7450923460211 19.865565613013  -0.000289824667225392 110.000662665692 
! Gamma  !      0                425.654969436148 0                425.654953476911 
! Port Impedance  260.734737795067 0                260.735282016447 0                

26.725           -0.000299412760700722 109.368333005958 -41.6055886642813 19.5038601485308 -41.6055886642819 19.503860148527  -0.000299418637376979 109.639386861667 
! Gamma  !      0                425.903066237445 0                425.903050287505 
! Port Impedance  260.670639025514 0                260.671183120777 0                

26.734           -0.000309356661052992 109.005143629997 -41.465548134932 19.1411047159418 -41.4655481349327 19.1411047159384 -0.000309361576231568 109.277065426049 
! Gamma  !      0                426.151102092676 0                426.15108615202  
! Port Impedance  260.606652160785 0                260.607196130146 0                

26.743           -0.000319662942377426 108.640884089247 -41.3249658685587 18.7772835206637 -41.3249658685592 18.7772835206602 -0.000319666894839258 108.913682636311 
! Gamma  !      0                426.399077108197 0                426.399061176811 
! Port Impedance  260.54277691317  0                260.543320756842 0                

26.752           -0.00033034570084989 108.275538208532 -41.1838369074797 18.4123804615729 -41.1838369074802 18.4123804615699 -0.000330348696250748 108.549222464937 
! Gamma  !      0                426.646991390092 0                426.646975467963 
! Port Impedance  260.479012995955 0                260.479556714158 0                

26.761           -0.000341419756292936 107.90908949681  -41.0421562244619 18.04637912333   -41.0421562244624 18.0463791233272 -0.000341421806775774 108.18366857178  
! Gamma  !      0                426.894845044171 0                426.894829131287 
! Port Impedance  260.415360123417 0                260.415903716356 0                

26.77            -0.000352900685203826 107.541521139212 -40.899918721405 17.6792627684607 -40.8999187214056 17.6792627684584 -0.000352901808983173 107.817004296198 
! Gamma  !      0                427.142638175975 0                427.142622272321 
! Port Impedance  260.351818010815 0                260.352361478708 0                

26.779           -0.000364804855597563 107.172815988839 -40.7571192279958 17.3110143291956 -40.7571192279964 17.3110143291933 -0.000364805076567053 107.449212648936 
! Gamma  !      0                427.390370890771 0                427.390354996337 
! Port Impedance  260.288386374401 0                260.288929717455 0                

26.788           -0.000377149463820286 106.802956558297 -40.6137525003303 16.9416163990522 -40.6137525003308 16.9416163990502 -0.000377148811180442 107.080276303759 
! Gamma  !      0                427.638043293561 0                427.638027408332 
! Port Impedance  260.225064931393 0                260.225608149821 0                

26.797           -0.000389952573461393 106.431925010973 -40.4698132195031 16.5710512241583 -40.4698132195037 16.5710512241567 -0.000389951081339698 106.710177588829 
! Gamma  !      0                427.885655489075 0                427.885639613038 
! Port Impedance  260.161853399988 0                260.162396494002 0                

26.806           -0.000403233156483145 106.059703152035 -40.3252959901633 16.1993006942989 -40.3252959901638 16.1993006942977 -0.000403230863555073 106.338898477798 
! Gamma  !      0                428.133207581776 0                428.133191714919 
! Port Impedance  260.098751499352 0                260.099294469161 0                

26.815           -0.000417011136661414 105.686272419144 -40.1801953390358 15.8263463336817 -40.1801953390363 15.8263463336805 -0.000417008085801359 105.966420580635 
! Gamma  !      0                428.38069967586  0                428.38068381817  
! Port Impedance  260.035758949615 0                260.036301795429 0                

26.824           -0.000431307435546021 105.311613872877 -40.0345057134068 15.4521692914083 -40.0345057134073 15.4521692914073 -0.00043130367348209 105.592725134148 
! Gamma  !      0                428.628131875258 0                428.628116026722 
! Port Impedance  259.972875471869 0                259.973418193898 0                

26.833           -0.000446144021042108 104.935708186834 -39.8882214795727 15.07675033164   -39.8882214795732 15.0767503316391 -0.000446139598000293 105.217792992212 
! Gamma  !      0                428.875504283636 0                428.875488444241 
! Port Impedance  259.910100788162 0                259.910643386614 0                

26.842           -0.00046154395878434 104.558535637437 -39.7413369212516 14.7000698234483 -39.7413369212521 14.7000698234475 -0.000461538928158737 104.841604615675 
! Gamma  !      0                429.122817004395 0                429.122801174129 
! Port Impedance  259.847434621495 0                259.847977096578 0                

26.851           -0.000477531466500898 104.18007609339  -39.5938462379562 14.3221077303354 -39.5938462379567 14.3221077303349 -0.000477525884528748 104.464140061943 
! Gamma  !      0                429.370070140673 0                429.370054319523 
! Port Impedance  259.784876695817 0                259.78541904774  0                

26.86            -0.000494131971505367 103.8003090048   -39.4457435433263 13.9428435994141 -39.4457435433267 13.9428435994142 -0.000494125896942095 104.085378974222 
! Gamma  !      0                429.617263795348 0                429.617247983301 
! Port Impedance  259.722426736022 0                259.722968964991 0                

26.869           -0.000511372171559778 103.419213391938 -39.2970228634207 13.5622565502334 -39.2970228634212 13.5622565502333 -0.000511365665374281 103.705300570412 
! Gamma  !      0                429.864398071032 0                429.864382268075 
! Port Impedance  259.660084467942 0                259.660626574165 0                

26.878           -0.000529280099277832 103.036767833635 -39.1476781349676 13.180325263234  -39.147678134968 13.1803252632342 -0.000529273224349704 103.32388363163  
! Gamma  !      0                430.111473070081 0                430.111457276202 
! Port Impedance  259.597849618349 0                259.598391602031 0                

26.887           -0.000547885190329947 102.652950455286 -38.9977032035699 12.7970279678237 -38.9977032035704 12.7970279678243 -0.000547878011144767 102.941106490352 
! Gamma  !      0                430.358488894589 0                430.358473109776 
! Port Impedance  259.535721914945 0                259.536263776291 0                

26.896           -0.00056721835564235 102.267738916458 -38.8470918218681 12.4123424300525 -38.8470918218686 12.4123424300532 -0.000567210938014941 102.556947018167 
! Gamma  !      0                430.605445646392 0                430.605429870632 
! Port Impedance  259.473701086358 0                259.474242825574 0                

26.905           -0.000587312057881805 101.881110398083 -38.6958376476555 12.0262459398756 -38.695837647656 12.0262459398764 -0.000587304468667923 102.171382613111 
! Gamma  !      0                430.852343427069 0                430.852327660349 
! Port Impedance  259.411786862143 0                259.412328479435 0                

26.914           -0.000608200392493518 101.493041589209 -38.543934241947 11.6387152979834 -38.5439342419474 11.6387152979842 -0.000608192699320821 101.784390186579 
! Gamma  !      0                431.099182337941 0                431.099166580249 
! Port Impedance  259.349978972776 0                259.350520468346 0                

26.923           -0.000629919173552039 101.103508673317 -38.391375066999 11.2497268021884 -38.3913750669995 11.2497268021895 -0.000629911444564567 101.395946149787 
! Gamma  !      0                431.345962480073 0                431.345946731396 
! Port Impedance  259.288277149645 0                259.288818523698 0                

26.932           -0.000652506024784418 100.71248731415  -38.2381534842797 10.8592562333421 -38.2381534842802 10.8592562333434 -0.000652498328371636 101.006026399778 
! Gamma  !      0                431.592683954275 0                431.592668214601 
! Port Impedance  259.226681125054 0                259.227222377792 0                

26.941           -0.000676000476043861 100.319952641073 -38.0842627523872 10.4672788407693 -38.0842627523877 10.4672788407704 -0.000675992880600563 100.614606304941 
! Gamma  !      0                431.839346861103 0                431.839331130419 
! Port Impedance  259.165190632213 0                259.16573176384  0                

26.95            -0.000700444065639522 99.9258792339091 -37.9296960249151 10.0737693271972 -37.9296960249155 10.0737693271985 -0.000700436639321884 100.221660690027 
! Gamma  !      0                432.085951300858 0                432.085935579152 
! Port Impedance  259.103805405237 0                259.104346415955 0                

26.959           -0.000725880448869296 99.5302411072595 -37.7744463482628 9.67870183316056 -37.7744463482633 9.6787018331621  -0.000725873259357668 99.8271638206513 
! Gamma  !      0                432.332497373592 0                432.332481660851 
! Port Impedance  259.042525179144 0                259.043066069154 0                

26.968           -0.000752355513163293 99.1330116942657 -37.6185066593912 9.28204992085713 -37.6185066593916 9.28204992085872 -0.000752348627448148 99.4310893872423 
! Gamma  !      0                432.578985179101 0                432.578969475314 
! Port Impedance  258.981349689844 0                258.981890459347 0                

26.977           -0.000779917500315202 98.7341638298018 -37.4618697835181 8.88378655743582 -37.4618697835185 8.88378655743756 -0.000779910984462823 99.03341048843   
! Gamma  !      0                432.825414816932 0                432.825399122086 
! Port Impedance  258.920278674143 0                258.92081932334  0                

26.986           -0.000808617136196861 98.3336697330669 -37.3045284317564 8.48388409768909 -37.3045284317569 8.48388409769099 -0.00080861105515265 98.6340996138411 
! Gamma  !      0                433.071786386384 0                433.071770700466 
! Port Impedance  258.859311869735 0                258.859852398827 0                

26.995           -0.000838507768538552 97.9315009895566 -37.1464751986894 8.08231426612729 -37.1464751986898 8.08231426612937 -0.000838502185911036 98.2331286262814 
! Gamma  !      0                433.318099986502 0                433.318084309501 
! Port Impedance  258.7984490152   0                258.798989424386 0                

27.004           -0.000869645513239962 97.527628532384  -36.9877025598836 7.67904813840696 -36.987702559884 7.67904813840895 -0.000869640491110851 97.8304687432742 
! Gamma  !      0                433.564355716088 0                433.564340047991 
! Port Impedance  258.737689849998 0                258.738230139477 0                

27.013           -0.000902089409832185 97.1220226229236 -36.8282028693362 7.27405612208646 -36.8282028693366 7.27405612208854 -0.000902085008570282 97.4260905179311 
! Gamma  !      0                433.810553673692 0                433.810538014487 
! Port Impedance  258.677034114468 0                258.677574284439 0                

27.022           -0.00093590158670642 96.7146528307487 -36.6679683568557 6.86730793667961 -36.6679683568561 6.86730793668195 -0.000935897864776705 97.0199638191252 
! Gamma  !      0                434.05669395762  0                434.056678307294 
! Port Impedance  258.616481549821 0                258.617021600483 0                

27.031           -0.000971147436736752 96.3054880128327 -36.5069911253738 6.45877259297627 -36.5069911253741 6.45877259297849 -0.000971144450537435 96.6120578109354 
! Gamma  !      0                434.302776665931 0                434.302761024474 
! Port Impedance  258.556031898142 0                258.556571829691 0                

27.04            -0.00100789580406732 95.8944962919796 -36.3452631481856 6.04841837159888 -36.3452631481859 6.04841837160126 -0.00100789360775244 96.2023409313315 
! Gamma  !      0                434.54880189644  0                434.548786263838 
! Port Impedance  258.495684902377 0                258.496224715012 0                

27.049           -0.00104621918276301 95.4816450344523 -36.1827762661174 5.63621280076037 -36.1827762661177 5.63621280076278 -0.00104621782809488 95.7907808700656 
! Gamma  !      0                434.794769746716 0                434.794754122958 
! Port Impedance  258.43544030634  0                258.435980000257 0                

27.058           -0.00108619392820325 95.0669008267616 -36.0195221846188 5.2221226331887  -36.0195221846191 5.22212263319115 -0.00108619346438571 95.3773445457349 
! Gamma  !      0                435.040680314087 0                435.04066469916  
! Port Impedance  258.375297854702 0                258.375837430097 0                

27.067           -0.00112790048207105 94.6502294515799 -35.8554924707772 4.80611382218043 -35.8554924707775 4.8061138221831  -0.00112790095561925 94.9619980819797 
! Gamma  !      0                435.286533695636 0                435.286518089529 
! Port Impedance  258.315257292988 0                258.315796750057 0                

27.076           -0.00117142361189826 94.2315958627378 -35.6906785502524 4.38815149674461 -35.6906785502526 4.38815149674732 -0.00117142506648346 94.5447067827762 
! Gamma  !      0                435.532329988206 0                435.532314390906 
! Port Impedance  258.255318367576 0                258.255857706516 0                

27.085           -0.00121685266616533 93.8109641592657 -35.5250717041291 3.96819993579616 -35.5250717041294 3.96819993579878 -0.00121685514249725 94.1254351067856 
! Gamma  !      0                435.778069288398 0                435.778053699894 
! Port Impedance  258.195480825695 0                258.196020046699 0                

27.094           -0.00126428184611026 93.3882975584339 -35.3586630656851 3.54622254135326 -35.3586630656854 3.54622254135609 -0.00126428538181464 93.7041466407133 
! Gamma  !      0                436.023751692574 0                436.023736112853 
! Port Impedance  258.135744415413 0                258.136283518677 0                

27.103           -0.00131381049537768 92.9635583677459 -35.1914436170712 3.12218181069813 -35.1914436170714 3.12218181070072 -0.00131381512486418 93.2808040716365 
! Gamma  !      0                436.269377296855 0                436.269361725906 
! Port Impedance  258.076108885645 0                258.076647871361 0                

27.112           -0.00136554340879386 92.5367079558389 -35.0234041859025 2.69603930744598 -35.0234041859027 2.69603930744872 -0.00136554916316831 92.855369158249  
! Gamma  !      0                436.514946197126 0                436.514930634936 
! Port Impedance  258.016573986139 0                258.017112854502 0                

27.121           -0.00141959116168005 92.107706722237  -34.8545354417567 2.26775563147983 -34.854535441757 2.26775563148286 -0.00141959806862009 92.4278027009769 
! Gamma  !      0                436.76045848903  0                436.760442935588 
! Port Impedance  257.95713946748  0                257.957678218683 0                

27.13            -0.00147607046112125 91.6765140659063 -34.684827892577 1.83729038768999 -34.6848278925772 1.83729038769282 -0.00147607854479241 91.9980645109072 
! Gamma  !      0                437.005914267978 0                437.005898723272 
! Port Impedance  257.897805081082 0                257.898343715317 0                

27.139           -0.00153510452085855 91.2430883525545 -34.5142718809779 1.40460215346849 -34.5142718809782 1.40460215347138 -0.00153511380181881 91.5661133774793 
! Gamma  !      0                437.251313629141 0                437.251298093159 
! Port Impedance  257.838570579186 0                257.839109096645 0                

27.148           -0.00159682346146063 90.8073868806158 -34.3428575804497 0.969648444895692 -34.3428575804499 0.969648444898628 -0.00159683395659 91.1319070348762 
! Gamma  !      0                437.496656667457 0                437.496641140188 
! Port Impedance  257.779435714857 0                257.779974115732 0                

27.157           -0.00166136473769571 90.3693658458568 -34.1705749914589 0.532385681557579 -34.1705749914592 0.532385681560482 -0.00166137646010851 90.695402127055  
! Gamma  !      0                437.741943477628 0                437.74192795906  
! Port Impedance  257.72040024198  0                257.720938526463 0                

27.166           -0.00172887359507277 89.9289803045392 -33.9974139374431 0.0927691499277457 -33.9974139374434 0.0927691499306788 -0.00172888655405587 90.2565541713514 
! Gamma  !      0                437.987174154123 0                437.987158644244 
! Port Impedance  257.661463915257 0                257.662002083537 0                

27.175           -0.00179950355772115 89.4861841350679 -33.8233640606949 -0.349247034754876 -33.8233640606951 -0.349247034752034 -0.0017995177586655 89.8153175205887 
! Gamma  !      0                438.232348791178 0                438.232333289975 
! Port Impedance  257.602626490202 0                257.603164542471 0                

27.184           -0.00187341694998524 89.040929998051  -33.6484148181336 -0.793709968187225 -33.6484148181338 -0.793709968184284 -0.00187343239434245 89.3716453236182 
! Gamma  !      0                438.477467482795 0                438.477451990258 
! Port Impedance  257.54388772314  0                257.544425659586 0                

27.193           -0.00195078545424155 88.5931692946945 -33.472555476961 -1.2406679983578 -33.4725554769612 -1.24066799835495 -0.00195080213946602 88.925489484215  
! Gamma  !      0                438.722530322747 0                438.722514838864 
! Port Impedance  257.485247371201 0                257.485785192015 0                

27.202           -0.00203179070767244 88.1428521234469 -33.2957751101975 -1.69017076864141 -33.2957751101977 -1.6901707686385 -0.00203180862718853 88.4768006182456 
! Gamma  !      0                438.967537404575 0                438.967521929334 
! Port Impedance  257.426705192319 0                257.42724289769  0                

27.211           -0.00211662494100437 87.6899272348089 -33.1180625920959 -2.14226926271736 -33.1180625920961 -2.14226926271448 -0.0021166440841639 88.0255280090241 
! Gamma  !      0                439.21248882159  0                439.212473354979 
! Port Impedance  257.368260945229 0                257.368798535344 0                

27.22            -0.00220549166237471 87.2343419842156 -32.9394065934293 -2.59701585140392 -32.9394065934295 -2.5970158514011 -0.0022055120144309 87.5716195607627 
! Gamma  !      0                439.457384666873 0                439.457369208882 
! Port Impedance  257.309914389459 0                257.310451864507 0                

27.229           -0.00229860638983258 86.7760422828916 -32.7597955766495 -3.05446434150565 -32.7597955766497 -3.05446434150281 -0.00229862793192261 87.1150217500234 
! Gamma  !      0                439.702225033279 0                439.702209583895 
! Port Impedance  257.251665285333 0                257.252202645501 0                

27.238           -0.00239619743624504 86.3149725465779 -32.579217790913 -3.51467002677681 -32.5792177909131 -3.51467002677402 -0.00239622014536874 86.6556795750656 
! Gamma  !      0                439.947010013432 0                439.946994572645 
! Port Impedance  257.193513393963 0                257.194050639439 0                

27.247           -0.00249850675067927 85.8510756420223 -32.3976612669707 -3.97768974110705 -32.3976612669709 -3.97768974110437 -0.00249853059970291 86.193536502986  
! Gamma  !      0                440.191739699732 0                440.191724267529 
! Port Impedance  257.135458477247 0                257.135995608218 0                

27.256           -0.00260579082071772 85.3842928311128 -32.215113811918 -4.44358191404871 -32.2151138119181 -4.44358191404601 -0.00260581577835557 85.7285344145316 
! Gamma  !      0                440.436414184352 0                440.436398760722 
! Port Impedance  257.077500297869 0                257.07803731452  0                

27.265           -0.00271832164048066 84.9145637125376 -32.0315630038017 -4.91240662880309 -32.0315630038019 -4.91240662880036 -0.00271834767131319 85.2606135464682 
! Gamma  !      0                440.681033559237 0                440.681018144169 
! Port Impedance  257.019638619289 0                257.020175521806 0                

27.274           -0.00283638774962074 84.4418261608358 -31.8469961860809 -5.38422568279751 -31.8469961860811 -5.38422568279489 -0.00283641481410409 84.7897124313753 
! Gamma  !      0                440.925597916112 0                440.925582509593 
! Port Impedance  256.961873205746 0                256.962409994315 0                

27.283           -0.00296029534894138 83.9660162627064 -31.6614004619369 -5.85910265099   -31.661400461937 -5.85910265098743 -0.00296032340341977 84.3157678347304 