! Touchstone file from project Ka_PF
! Exported from HFSS 15.0.0
! Variables:
!  AA = 0.34in
!  BB = 0.145in
!  M01 = 0.1662in
!  M11 = 0.2126in
!  M12 = 0.1115in
!  M22 = 0.2363in
!  PL = 0.3in
!  RR = 0.035in
!  TT = 0.04in
!Data is not renormalized
# GHZ S DB
! Modal data exported
! Port[1] = 1:1
! Port[2] = 2:1
26.5             -0.000145329810625355 117.628755408989 -44.7543686624525 -152.360244110606 -44.754368662454 -152.360244110602 -0.000145329813149042 117.650756370209 
! Gamma  !      -0               419.682078121563 -0               419.682039278046 
! Port Impedance  262.305608416524 0                262.301060829652 0                

26.509           -0.000149382295935858 117.285523577155 -44.6258072791646 -152.703359424593 -44.625807279166 -152.70335942459 -0.000149383012090539 117.307757195657 
! Gamma  !      0                419.931670264823 0                419.931631444394 
! Port Impedance  262.238735413456 0                262.234188878598 0                

26.518           -0.000153620357107823 116.941519380618 -44.4968045052605 -153.047245790746 -44.4968045052617 -153.047245790743 -0.000153621699263242 116.963988323941 
! Gamma  !      0                420.181198824923 0                420.181160027548 
! Port Impedance  262.171981529696 0                262.16743604506  0                

26.527           -0.000158047181042768 116.596732174885 -44.3673567192397 -153.391913831365 -44.3673567192408 -153.391913831361 -0.000158049066750974 116.619439152591 
! Gamma  !      0                420.430663915074 0                420.430625140719 
! Port Impedance  262.105346452285 0                262.100802016082 0                

26.536           -0.000162666252353379 116.251151131885 -44.2374602541402 -153.737374351963 -44.2374602541412 -153.73737435196 -0.000162668604206 116.2740988964   
! Gamma  !      0                420.68006564819  0                420.680026896823 
! Port Impedance  262.038829869369 0                262.034286479818 0                

26.545           -0.00016748136271533 115.90476523589  -44.1071113967703 -154.08363834534 -44.1071113967711 -154.083638345337 -0.000167484108179636 115.927956583366 
! Gamma  !      0                420.929404136888 0                420.929365408476 
! Port Impedance  261.972431470199 0                261.96788912552  0                

26.554           -0.000172496620675388 115.557563279324 -43.9763063869232 -154.430716995748 -43.976306386924 -154.430716995745 -0.000172499691939033 115.58100105052  
! Gamma  !      0                421.178679493492 0                421.178640788001 
! Port Impedance  261.906150945121 0                261.901609643541 0                

26.563           -0.000177716462056607 115.209533858456 -43.8450414165764 -154.778621683193 -43.845041416577 -154.77862168319 -0.000177719795874301 115.233220939642 
! Gamma  !      0                421.427891830028 0                421.427853147425 
! Port Impedance  261.839987985576 0                261.835447725324 0                

26.572           -0.000183145660879619 114.860665368976 -43.7133126290721 -155.127363987839 -43.7133126290728 -155.127363987835 -0.000183149198421728 114.884604692858 
! Gamma  !      0                421.677041258233 0                421.677002598486 
! Port Impedance  261.773942284089 0                261.7694030634   0                

26.581           -0.000188789340912859 114.510946001448 -43.5811161182821 -155.47695569454 -43.5811161182826 -155.476955694537 -0.000188793027615931 114.535140548121 
! Gamma  !      0                421.926127889548 0                421.926089252624 
! Port Impedance  261.708013534269 0                261.703475351382 0                

26.59            -0.000194652987830531 114.160363736633 -43.4484479277522 -155.827408797503 -43.4484479277526 -155.8274087975  -0.000194656773251684 114.184816534554 
! Gamma  !      0                422.175151835127 0                422.175113220994 
! Port Impedance  261.642201430803 0                261.637664283961 0                

26.599           -0.000200742462058363 113.808906340692 -43.3153040498305 -156.178735505071 -43.3153040498309 -156.178735505068 -0.000200746299735461 113.833620467677 
! Gamma  !      0                422.424113205831 0                422.424074614456 
! Port Impedance  261.576505669451 0                261.571969556901 0                

26.608           -0.000207064012299468 113.456561360243 -43.1816804247753 -156.530948244648 -43.1816804247756 -156.530948244645 -0.000207067859594898 113.481539944494 
! Gamma  !      0                422.673012112233 0                422.672973543583 
! Port Impedance  261.510925947039 0                261.506390867034 0                

26.617           -0.000213624289798178 113.103316117285 -43.0475729398434 -156.884059667762 -43.0475729398436 -156.884059667759 -0.000213628107777345 113.128562338437 
! Gamma  !      0                422.921848664618 0                422.921810118661 
! Port Impedance  261.445461961457 0                261.440927912254 0                

26.626           -0.000220430363412272 112.749157703974 -42.9129774283597 -157.238082655269 -42.9129774283598 -157.238082655266 -0.000220434116692202 112.774674794174 
! Gamma  !      0                423.170622972984 0                423.170584449687 
! Port Impedance  261.380113411657 0                261.375580391515 0                

26.635           -0.000227489735459884 112.394072977256 -42.7778896687646 -157.59303032271 -42.7778896687646 -157.593030322708 -0.000227493392077111 112.419864222267 
! Gamma  !      0                423.419335147043 0                423.419296646374 
! Port Impedance  261.31487999764  0                261.310348004825 0                

26.644           -0.000234810358475137 112.038048553337 -42.6423053836415 -157.948916025816 -42.6423053836415 -157.948916025813 -0.000234813889762274 112.064117293673 
! Gamma  !      0                423.667985296221 0                423.667946818148 
! Port Impedance  261.249761420459 0                261.24523045324  0                

26.653           -0.000242400652869663 111.681070802006 -42.5062202387225 -158.305753366175 -42.5062202387225 -158.305753366173 -0.00024240403330786 111.707420434096 
! Gamma  !      0                423.916573529661 0                423.916535074153 
! Port Impedance  261.184757382212 0                261.180227438861 0                

26.662           -0.000250269525545349 111.323125840785 -42.3696298418718 -158.663556197066 -42.3696298418717 -158.663556197063 -0.000250272732648573 111.349759818164 
! Gamma  !      0                424.165099956224 0                424.165061523247 
! Port Impedance  261.119867586034 0                261.11533866483  0                

26.671           -0.000258426389551887 110.964199528909 -42.2325297420462 -159.022338629453 -42.232529742046 -159.02233862945 -0.000258429403727101 110.991121363442 
! Gamma  !      0                424.413564684488 0                424.413526274011 
! Port Impedance  261.055091736098 0                261.050563835323 0                

26.68            -0.000266881184811354 110.604277461133 -42.0949154282321 -159.38211503817 -42.094915428232 -159.382115038167 -0.000266883989252442 110.631490724278 
! Gamma  !      0                424.661967822748 0                424.661929434739 
! Port Impedance  260.990429537607 0                260.985902655547 0                

26.689           -0.000275644399991826 110.243344961357 -41.9567823283597 -159.74290006827 -41.9567823283595 -159.742900068267 -0.000275646980539766 110.27085328545  
! Gamma  !      0                424.910309479022 0                424.91027111345  
! Port Impedance  260.925880696791 0                260.921354831736 0                

26.698           -0.000284727095584072 109.881387076061 -41.8181258081903 -160.10470864158 -41.8181258081901 -160.104708641577 -0.00028472944061315 109.909194155644 
! Gamma  !      0                425.158589761049 0                425.15855141788  
! Port Impedance  260.8614449209   0                260.856920071145 0                

26.707           -0.000294140928252748 109.518388567545 -41.6789411701807 -160.467555963431 -41.6789411701806 -160.467555963428 -0.000294143028550984 109.546498160725 
! Gamma  !      0                425.406808776286 0                425.40677045549  
! Port Impedance  260.797121918203 0                260.792598082046 0                

26.716           -0.00030389817653736 109.154333906966 -41.5392236523204 -160.831457529612 -41.5392236523202 -160.83145752961 -0.000303900025201399 109.182749836815 
! Gamma  !      0                425.654966631917 0                425.654928333462 
! Port Impedance  260.732911397981 0                260.728388573725 0                

26.725           -0.000314011767999489 108.789207267171 -41.3989684269418 -161.196429133513 -41.3989684269416 -161.19642913351 -0.000314013360297671 108.817933423158 
! Gamma  !      0                425.903063434848 0                425.903025158703 
! Port Impedance  260.668813070522 0                260.664291256474 0                

26.734           -0.000324495307839493 108.422992515305 -41.2581705995038 -161.562486873494 -41.2581705995036 -161.562486873491 -0.00032449664112892 108.452032854771 
! Gamma  !      0                426.15109929171  0                426.151061037843 
! Port Impedance  260.604826647121 0                260.600305841592 0                

26.743           -0.000335363109166943 108.055673205204 -41.116825207347 -161.929647160475 -41.1168252073469 -161.929647160472 -0.00033536418275366 108.085031754877 
! Gamma  !      0                426.39907430886  0                426.39903607724  
! Port Impedance  260.540951840069 0                260.536432041375 0                

26.752           -0.000346630224908483 107.687232569546 -40.9749272184199 -162.297926725764 -40.9749272184197 -162.297926725761 -0.00034663103996069 107.716913427097 
! Gamma  !      0                426.646988592381 0                426.646950382977 
! Port Impedance  260.477188362654 0                260.472669569114 0                

26.761           -0.000358312481549931 107.31765351177  -40.832471529975 -162.667342629113 -40.8324715299748 -162.66734262911 -0.000358313040989016 107.347660847409 
! Gamma  !      0                426.894842248085 0                426.894804060865 
! Port Impedance  260.413535929154 0                260.409018139092 0                

26.77            -0.000370426514758028 106.946918597739 -40.6894529672352 -163.037912267035 -40.689452967235 -163.037912267032 -0.000370426823151532 106.97725665586  
! Gamma  !      0                427.142635381592 0                427.142597216443 
! Port Impedance  260.349994254835 0                260.345477466579 0                

26.779           -0.000382989807022753 106.575010047146 -40.5458662820284 -163.409653381373 -40.5458662820282 -163.40965338137 -0.000382989870475405 106.605683148017 
! Gamma  !      0                427.390368097926 0                427.390329954982 
! Port Impedance  260.286563055943 0                260.282047267824 0                

26.788           -0.000396020727416738 106.201909724652 -40.4017061513891 -163.782584068138 -40.401706151389 -163.782584068135 -0.000396020553486564 106.232922266149 
! Gamma  !      0                427.638040502333 0                427.638002381481 
! Port Impedance  260.223242049703 0                260.218727260056 0                

26.797           -0.000409538573628155 105.827599130747 -40.2569671761291 -164.156722786628 -40.2569671761288 -164.156722786626 -0.000409538171222332 105.85895559014  
! Gamma  !      0                427.885652699462 0                427.88561460067  
! Port Impedance  260.160030954313 0                260.155517161478 0                

26.806           -0.000423563616392557 105.45205939232  -40.1116438793706 -164.532088368829 -40.1116438793704 -164.532088368826 -0.000423562995668093 105.483764328106 
! Gamma  !      0                428.133204793776 0                428.133166717013 
! Port Impedance  260.096929488941 0                260.092416691262 0                

26.815           -0.000438117146454995 105.075271252929 -39.9657307050484 -164.908700029116 -39.9657307050482 -164.908700029113 -0.000438116318730981 105.107329306722 
! Gamma  !      0                428.380696889471 0                428.380658834708 
! Port Impedance  260.033937373718 0                260.029425569543 0                

26.824           -0.000453221524229416 104.697215062762 -39.8192220163724 -165.286577374274 -39.8192220163723 -165.286577374271 -0.00045322050189349 104.729630961234 
! Gamma  !      0                428.628129090478 0                428.628091057683 
! Port Impedance  259.971054329738 0                259.96654351742  0                

26.833           -0.00046890023232717 104.317870768273 -39.672112094256 -165.665740413824 -39.6721120942559 -165.665740413821 -0.000468899028743911 104.350649325149 
! Gamma  !      0                428.875501500462 0                428.875463489608 
! Port Impedance  259.908280079051 0                259.903770256946 0                

26.842           -0.000485177931121675 103.937217901487 -39.5243951357042 -166.046209570699 -39.5243951357041 -166.046209570696 -0.000485176560546781 103.970364019602 
! Gamma  !      0                429.122814222825 0                429.122776233901 
! Port Impedance  259.845614344674 0                259.841105511128 0                

26.851           -0.000502080517523051 103.555235568952 -39.3760652521642 -166.428005692258 -39.3760652521641 -166.428005692255 -0.000502078995019452 103.588754242362 
! Gamma  !      0                429.370067360705 0                429.370029393612 
! Port Impedance  259.783056850524 0                259.778549003921 0                

26.86            -0.000519635187199238 103.171902440332 -39.2271164678348 -166.811150061662 -39.2271164678347 -166.81115006166 -0.000519633528552238 103.205798756493 
! Gamma  !      0                429.617261016979 0                429.617223071739 
! Port Impedance  259.720607321524 0                259.716100460224 0                

26.869           -0.000537870500416497 102.787196736623 -39.0775427179351 -167.195664409629 -39.077542717935 -167.195664409626 -0.000537868722056634 102.821475878629 
! Gamma  !      0                429.864395294261 0                429.864357370838 
! Port Impedance  259.658265483502 0                259.653759605877 0                

26.878           -0.000556816451764789 102.401096217984 -38.92733784693  -167.581570926568 -38.9273378469299 -167.581570926566 -0.000556814570675265 102.435763466873 
! Gamma  !      0                430.111470294905 0                430.111432393268 
! Port Impedance  259.59603106323  0                259.591526167655 0                

26.887           -0.000576504543962218 102.013578171156 -38.7764956067125 -167.968892275134 -38.7764956067125 -167.968892275131 -0.000576502577620081 102.048638908282 
! Gamma  !      0                430.358486121006 0                430.358448241125 
! Port Impedance  259.533903788413 0                259.529399873267 0                

26.896           -0.000596967866079319 101.624619396458 -38.6250096547407 -168.357651603183 -38.6250096547407 -168.357651603181 -0.000596965832365788 101.660079105938 
! Gamma  !      0                430.6054428744   0                430.605405016244 
! Port Impedance  259.471883387681 0                259.467380451348 0                

26.905           -0.000618241176351404 101.234196194356 -38.4728735521285 -168.747872557184 -38.4728735521285 -168.747872557182 -0.000618239093483409 101.270060465586 
! Gamma  !      0                430.852340656665 0                430.852302820204 
! Port Impedance  259.40996959059  0                259.405467631458 0                

26.914           -0.000640360989993135 100.842284351562 -38.3200807616888 -169.139579296072 -38.3200807616888 -169.13957929607 -0.000640358876441353 100.878558881809 
! Gamma  !      0                431.099179569123 0                431.099141754326 
! Port Impedance  259.348162127618 0                259.343661144076 0                

26.923           -0.000663365672218335 100.448859126667 -38.1666246459274 -169.532796505579 -38.1666246459275 -169.532796505577 -0.000663363546659949 100.485549723743 
! Gamma  !      0                431.345959712839 0                431.345921919677 
! Port Impedance  259.286460730155 0                259.2819607206   0                

26.932           -0.000687295536927536 100.05389523528  -38.0124984649872 -169.927549413061 -38.0124984649872 -169.927549413059 -0.000687293418156554 100.091007820292 
! Gamma  !      0                431.592681188623 0                431.592643417065 
! Port Impedance  259.224865130506 0                259.220366093337 0                

26.941           -0.000712192951295312 99.6573668346448 -37.8576953745394 -170.32386380283 -37.8576953745393 -170.323863802828 -0.000712190858162791 99.6949074448363 
! Gamma  !      0                431.83934409703  0                431.839306347048 
! Port Impedance  259.163375061885 0                259.158876995504 0                

26.95            -0.000738102446765356 99.259247507736  -37.7022084236223 -170.721766032024 -37.7022084236223 -170.721766032022 -0.00073810039811769 99.2972222994072 
! Gamma  !      0                432.085948538364 0                432.085910809926 
! Port Impedance  259.101990258408 0                259.097493161221 0                

26.959           -0.000765070836782888 98.8595102467845 -37.5460305524249 -171.121283047035 -37.5460305524249 -171.121283047034 -0.000765068851398173 98.8979254983084 
! Gamma  !      0                432.332494612672 0                432.33245690575  
! Port Impedance  259.040710455092 0                259.036214325511 0                

26.968           -0.000793147341764791 98.4581274362289 -37.3891545900137 -171.522442400511 -37.3891545900138 -171.522442400509 -0.000793145438290149 98.49698955116   
! Gamma  !      0                432.578982419754 0                432.578944734318 
! Port Impedance  258.979535387852 0                258.975040224291 0                

26.977           -0.000822383721760689 98.0550708350627 -37.2315732520018 -171.925272268961 -37.2315732520019 -171.925272268959 -0.000822381918655382 98.0943863453421 
! Gamma  !      0                432.825412059157 0                432.825374395177 
! Port Impedance  258.918464793496 0                258.913970594375 0                

26.986           -0.000852834417314223 97.6503115585482 -37.0732791381575 -172.329801470994 -37.0732791381576 -172.329801470993 -0.000852832732787942 97.6900871278102 
! Gamma  !      0                433.071783630177 0                433.071745987624 
! Port Impedance  258.857498409717 0                258.853005173445 0                

26.995           -0.000884556699094655 97.2438200592756 -36.9142647299523 -172.736059486208 -36.9142647299524 -172.736059486207 -0.000884555151060281 97.2840624862587 
! Gamma  !      0                433.318097231863 0                433.318059610707 
! Port Impedance  258.796635975099 0                258.792143700114 0                

27.004           -0.000917610826869063 96.8355661075364 -36.7545223880445 -173.144076474764 -36.7545223880446 -173.144076474762 -0.000917609432880955 96.8762823296022 
! Gamma  !      0                433.564352963012 0                433.564315363225 
! Port Impedance  258.735877229103 0                258.731385913832 0                

27.013           -0.000952060218453016 96.4255187709818 -36.5940443496983 -173.55388329767 -36.5940443496985 -173.553883297669 -0.000952058995663628 96.4667158677476 
! Gamma  !      0                433.810550922179 0                433.81051334373  
! Port Impedance  258.67522191207  0                258.670731554946 0                

27.022           -0.000987971629324108 96.0136463935368 -36.4328227261354 -173.965511537816 -36.4328227261356 -173.965511537815 -0.000987970594420347 96.0553315906233 
! Gamma  !      0                434.056691207667 0                434.056653650528 
! Port Impedance  258.614669765214 0                258.610180364672 0                

27.031           -0.00102541534361469 95.5999165735347 -36.2708494998177 -174.378993521773 -36.2708494998178 -174.378993521771 -0.00102541451278707 95.6420972464371 
! Gamma  !      0                434.302773917537 0                434.302736381678 
! Port Impedance  258.554220530618 0                258.549732085101 0                

27.04            -0.00106446537728235 95.1842961410414 -36.1081165216586 -174.794362342411 -36.1081165216588 -174.79436234241 -0.00106446476616232 95.2269798191246 
! Gamma  !      0                434.548799149601 0                434.548761634994 
! Port Impedance  258.493873951234 0                258.489386459185 0                

27.049           -0.00110519969428291 94.7667511343302 -35.9446155081621 -175.211651882362 -35.9446155081623 -175.211651882361 -0.0011051993179043 94.8099455049556 
! Gamma  !      0                434.794767001432 0                434.794729508047 
! Port Impedance  258.433629770876 0                258.429143230742 0                

27.058           -0.0011477004366482 94.3472467754713 -35.7803380384853 -175.630896838358 -35.7803380384854 -175.630896838357 -0.00114770030941056 94.3909596882598 
! Gamma  !      0                435.040677570354 0                435.040640098163 
! Port Impedance  258.373487734215 0                258.369002144448 0                

27.067           -0.00119205416948673 93.9257474449974 -35.6152755514241 -176.052132746505 -35.6152755514243 -176.052132746504 -0.00119205430510136 93.9699869162326 
! Gamma  !      0                435.286530953453 0                435.286493502426 
! Port Impedance  258.31344758678  0                258.308962945836 0                

27.076           -0.00123835214186026 93.5022166555997 -35.4494193423199 -176.475396008506 -35.4494193423201 -176.475396008505 -0.00123835255331837 93.546990872779  
! Gamma  !      0                435.532327247571 0                435.53228981768  
! Port Impedance  258.253509074952 0                258.249025381289 0                

27.085           -0.00128669056476537 93.0766170248161 -35.282760559883 -176.900723918902 -35.2827605598832 -176.900723918901 -0.0012866912642957 93.1219343513533 
! Gamma  !      0                435.778066549308 0                435.778029140525 
! Port Impedance  258.193671945957 0                258.189189198038 0                

27.094           -0.0013371709073425 92.6489102466601 -35.1152902029326 -177.328154693368 -35.1152902029328 -177.328154693367 -0.00133717190638428 92.6947792267474 
! Gamma  !      0                436.023748955028 0                436.023711567322 
! Port Impedance  258.13393594787  0                258.129454144161 0                

27.103           -0.00138990021269475 92.2190570621453 -34.9469991170496 -177.757727498102 -34.9469991170498 -177.757727498102 -0.00138990152184568 92.2654864257798 
! Gamma  !      0                436.26937456085  0                436.269337194195 
! Port Impedance  258.074300829604 0                258.069819968575 0                

27.112           -0.00144499143465116 91.7870172286529 -34.7778779911407 -178.189482480377 -34.7778779911409 -178.189482480377 -0.00144499306364809 91.8340158968349 
! Gamma  !      0                436.514943462659 0                436.514906117025 
! Port Impedance  258.01476634091  0                258.010286421034 0                

27.121           -0.00150256379703711 91.3527494880887 -34.6079173539101 -178.623460800295 -34.6079173539104 -178.623460800295 -0.00150256575472038 91.4003265781987 
! Gamma  !      0                436.760455756101 0                436.76041843146  
! Port Impedance  257.955332232375 0                257.950853252129 0                

27.13            -0.00156274317706933 90.9162115337714 -34.4371075702371 -179.059704663806 -34.4371075702374 -179.059704663806 -0.00156274547135 90.9643763651327 
! Gamma  !      0                437.005911536584 0                437.005874232907 
! Port Impedance  257.895998255414 0                257.891520213279 0                

27.139           -0.00162566251463743 90.4773599759958 -34.2654388374571 -179.498257357051 -34.2654388374573 -179.498257357051 -0.00162566515246256 90.5261220756307 
! Gamma  !      0                437.25131089928  0                437.251273616539 
! Port Impedance  257.83676416227  0                257.832287056731 0                

27.148           -0.0016914622493608 90.0361503062034 -34.0929011815421 -179.939163282091 -34.0929011815423 -179.939163282091 -0.00169146523670959 90.0855194147912 
! Gamma  !      0                437.496653939127 0                437.496616677294 
! Port Impedance  257.777629706011 0                257.773153535554 0                

27.157           -0.00176029078752488 89.5925368596968 -33.9194844531797 179.61753200591  -33.91948445318  179.617532005911 -0.00176029412935759 89.6425229377412 
! Gamma  !      0                437.741940750827 0                437.741903509873 
! Port Impedance  257.718594640521 0                257.714119403639 0                

27.166           -0.00183230500103475 89.146472776826  -33.7451783237462 179.171781759981 -33.7451783237464 179.171781759981 -0.0018323087012782 89.1970860110414 
! Gamma  !      0                437.987171428849 0                437.987134208746 
! Port Impedance  257.659658720505 0                257.655184415692 0                

27.175           -0.0019076707608421 88.697909962573  -33.5699722811716 178.723538001039 -33.5699722811719 178.723538001039 -0.00190767482236656 88.7491607724987 
! Gamma  !      0                438.232346067428 0                438.232308868149 
! Port Impedance  257.60082170148  0                257.596348327234 0                

27.184           -0.00198656350743832 88.2467990444562 -33.3938556256941 178.272751475913 -33.3938556256944 178.272751475913 -0.0019865679320353 88.2986980893083 
! Gamma  !      0                438.477464760568 0                438.477427582084 
! Port Impedance  257.54208333977  0                257.537610894593 0                

27.193           -0.00206916886115619 87.7930893286726 -33.2168174655   177.819371613608 -33.2168174655003 177.819371613608 -0.00206917364952688 87.8456475144432 
! Gamma  !      0                438.72252760204  0                438.722490444324 
! Port Impedance  257.483443392509 0                257.478971874907 0                

27.202           -0.00215568327539873 87.3367287543872 -33.0388467122474 177.363346479724 -33.0388467122477 177.363346479724 -0.00215568842712121 87.3899572412024 
! Gamma  !      0                438.967534685387 0                438.96749754841  
! Port Impedance  257.424901617632 0                257.420431026113 0                

27.211           -0.00224631473599647 86.8776638460816 -32.8599320764694 176.904622728934 -32.8599320764697 176.904622728933 -0.00224632024952087 86.9315740558286 
! Gamma  !      0                439.212486103918 0                439.212448987652 
! Port Impedance  257.366457773874 0                257.361988106952 0                

27.22            -0.00234128351030568 86.4158396638599 -32.6800620628548 176.443145555434 -32.6800620628551 176.443145555434 -0.00234128938293295 86.4704432880958 
! Gamma  !      0                439.457381950716 0                439.457344855134 
! Port Impedance  257.308111620767 0                257.303642876957 0                

27.229           -0.00244082294985238 85.9511997516107 -32.4992249654026 175.978858641251 -32.4992249654029 175.978858641251 -0.00244082917772273 86.0065087597645 
! Gamma  !      0                439.702222318634 0                439.702185243708 
! Port Impedance  257.249862918635 0                257.245395096457 0                

27.238           -0.00254518035075127 85.4836860829139 -32.3174088624472 175.511704102297 -32.3174088624475 175.511704102296 -0.00254518692882869 85.5397127307954 
! Gamma  !      0                439.947007300298 0                439.946970246    
! Port Impedance  257.191711428593 0                257.187244526568 0                

27.247           -0.00265461787638247 85.0132390045794 -32.1346016115531 175.041622432072 -32.1346016115534 175.041622432071 -0.00265462479844795 85.0699958432078 
! Gamma  !      0                440.191736988106 0                440.19169995441  
! Port Impedance  257.13365691254  0                257.129190929196 0                

27.256           -0.00276941354724773 84.5397971776895 -31.9507908442721 174.568552442871 -31.9507908442724 174.568552442871 -0.00276942080587999 84.5972970624573 
! Gamma  !      0                440.436411474232 0                440.436374461109 
! Port Impedance  257.07569913316  0                257.071234067027 0                

27.265           -0.0028898623033666 84.0632975160202 -31.7659639607651 174.092431204381 -31.7659639607654 174.092431204381 -0.00288986988994299 84.1215536162063 
! Gamma  !      0                440.681030850622 0                440.680993858045 
! Port Impedance  257.017837853918 0                257.013373703528 0                

27.274           -0.00301627714497318 83.5836751217002 -31.5801081242812 173.613193979519 -31.5801081242815 173.613193979518 -0.00301628504966094 83.6427009303481 
! Gamma  !      0                440.925595208999 0                440.92555823694  
! Port Impedance  256.960072839051 0                256.955609602941 0                
